ITEM: TIMESTEP
0
ITEM: NUMBER OF ATOMS
5456
ITEM: BOX BOUNDS pp pp pp
-2.1530126718045793e+01 2.1530126718045793e+01
-1.8669102400621480e+01 1.8669102400621480e+01
-2.7886566686291701e+01 2.7886566686291701e+01
ITEM: ATOMS id type xs ys zs
3586 3 0.0821158 0.122604 0.00857895
3610 4 0.00822537 0.120716 0.121521
3756 1 0.0580584 -2.6683e-08 0.0896488
3757 2 0.0543497 0.0157733 0.102872
3762 1 0.0580583 0.0669554 0.0448244
3763 2 0.0525723 0.0893204 0.0375837
3764 2 0.0428181 0.0634837 0.0571003
3765 1 0.0580582 0.0669556 0.0896487
3766 2 0.0405895 0.0733735 0.0993539
3767 2 0.0692204 0.0498455 0.0990865
3825 1 0.116116 2.11876e-07 4.87206e-08
3828 1 0.116116 1.87406e-07 0.089649
3831 1 0.116116 0.0669558 0.0896489
3832 2 0.127212 0.0504204 0.0995796
3833 2 0.101869 0.0523626 0.0808108
3546 3 0.181259 0.121337 0.101915
3603 4 0.195087 0.029336 0.0903517
3637 4 0.152331 0.0654128 0.0438404
3912 1 0.174175 -2.0276e-08 -1.40323e-07
3914 2 0.152408 0.0044724 0.00178232
3915 1 0.174175 0.133911 -2.99274e-08
3916 2 0.152384 0.13693 0.00272534
3917 2 0.182555 0.1576 0.00108338
3963 1 0.232233 5.04744e-08 1.18898e-07
3966 1 0.232233 3.71173e-08 0.0448246
3967 2 0.244864 0.0174219 0.0368617
3972 1 0.232233 0.0669556 -1.13814e-07
3973 2 0.250348 0.0804811 0.00411582
3974 2 0.232901 0.0465419 0.0103688
3975 1 0.232233 0.0669556 0.0448245
3976 2 0.248207 0.0832087 0.0497272
3977 2 0.243177 0.0461829 0.0393693
3978 1 0.232233 0.133911 7.10576e-08
3979 2 0.218334 0.152181 0.00545933
3981 1 0.232233 0.133911 0.0448245
3982 2 0.223864 0.146662 0.0582382
3983 2 0.226985 0.148329 0.0312245
4051 2 0.272812 0.059775 0.0353732
4052 2 0.28409 0.089187 0.0519038
3547 3 0.308908 0.0145508 0.0911865
3570 3 0.410525 0.0502182 0.0975938
3649 4 0.364202 0.125024 0.010314
3661 4 0.400711 0.133317 0.059661
4047 1 0.290291 0.0669554 6.43567e-08
4049 2 0.289139 0.0916639 0.00448717
4050 1 0.290291 0.0669554 0.0448245
4053 1 0.290291 0.133911 -3.1875e-08
4054 2 0.300492 0.125586 0.0141935
4056 1 0.290291 0.133911 0.0448244
4057 2 0.304726 0.114606 0.043008
4058 2 0.30275 0.15379 0.0498136
4059 1 0.290291 0.133911 0.0896489
4060 2 0.304945 0.120001 0.0807144
4061 2 0.300425 0.15643 0.0921097
3618 4 0.514357 0.0294486 0.0100838
4347 1 0.464465 -1.29016e-07 0.0448243
4348 2 0.456107 0.0199543 0.0534524
4350 1 0.464465 -8.39651e-08 0.0896488
4351 2 0.463545 0.0136651 0.104152
4356 1 0.464465 0.0669554 0.0448245
4357 2 0.482979 0.0729139 0.0534452
4358 2 0.468592 0.0743137 0.028696
4362 1 0.464466 0.133911 0.0896488
4363 2 0.459166 0.156563 0.0965649
4364 2 0.449826 0.117476 0.0964106
4509 1 0.522524 0.0669556 0.0896488
4510 2 0.50529 0.0510591 0.0875881
4511 2 0.523852 0.0704984 0.106616
4518 1 0.522524 0.133911 0.0448246
4519 2 0.532515 0.152417 0.0357937
4520 2 0.501094 0.13558 0.0404032
4712 2 0.560711 0.00898322 0.00479694
4714 2 0.57024 0.0140668 0.0329034
4720 2 0.559134 0.0717331 0.0416455
4727 2 0.567572 0.118359 0.00923336
4729 2 0.561512 0.142697 0.0513959
3535 3 0.701531 0.110938 0.00278445
3537 3 0.655118 0.126853 0.0667541
3594 3 0.653613 0.0918738 0.120775
3616 4 0.582124 0.159639 0.110276
4710 1 0.580582 -9.10409e-08 9.6459e-08
4713 1 0.580582 -1.05161e-07 0.0448244
4716 1 0.580582 0.0669553 1.75169e-08
4718 2 0.592016 0.0887575 0.00189066
4719 1 0.580582 0.0669553 0.0448244
4721 2 0.589442 0.0900004 0.0479442
4725 1 0.580582 0.133911 -3.30303e-08
4728 1 0.580582 0.133911 0.0448244
4730 2 0.581757 0.109597 0.0501887
4884 1 0.63864 -1.94629e-07 -8.43399e-08
4886 2 0.642835 0.00616884 0.01634
4887 1 0.63864 7.42197e-08 0.0448243
4893 1 0.63864 0.0669554 -3.47063e-08
4895 2 0.658314 0.0583157 0.00551155
5055 1 0.696698 -7.63324e-08 -1.13327e-07
5056 2 0.695077 0.0232819 0.00707392
5058 1 0.696698 2.08959e-07 0.0448244
3493 3 0.823705 0.0962806 0.0512664
3583 3 0.790323 0.1288 0.00101954
5142 1 0.754757 2.01574e-08 0.0448244
5144 2 0.739915 0.00174727 0.0321012
5145 1 0.754756 0.0669558 0.0448245
5146 2 0.754516 0.0473548 0.0558844
5147 2 0.741014 0.0597322 0.0322312
5148 1 0.754756 0.0669558 0.0896489
5149 2 0.754718 0.047182 0.100572
5150 2 0.740898 0.0598574 0.0770996
5153 2 0.747433 0.048759 0.123788
5157 1 0.754757 0.133911 0.0896489
5158 2 0.740591 0.143475 0.0780754
5159 2 0.743065 0.115922 0.0978969
5229 1 0.812814 -5.99605e-08 0.0448246
5231 2 0.813317 0.0217848 0.0357859
5232 1 0.812815 -1.53487e-07 0.089649
5233 2 0.821164 0.00485963 0.0740796
5234 2 0.794632 0.0146739 0.0906327
5323 2 0.852311 0.120927 0.00369049
3552 3 0.996539 0.0133713 0.0154975
3559 3 0.91866 0.0517247 0.0181313
3561 3 0.910786 0.00786084 0.113646
3620 4 0.973805 0.0422922 0.0761276
5316 1 0.870873 8.7643e-08 0.0448246
5319 1 0.870873 0.0669556 0.0896491
5320 2 0.867801 0.0432039 0.0836422
5321 2 0.867834 0.0821129 0.0760081
5322 1 0.870873 0.133911 -1.07747e-07
5324 2 0.886433 0.123372 0.0100219
3588 3 0.0892353 0.173718 0.0606039
3680 4 0.037105 0.292781 0.0885323
3769 2 0.0707663 0.328061 0.0133439
3772 2 0.0751191 0.331986 0.0556663
3834 1 0.116116 0.200867 -1.59992e-07
3835 2 0.12446 0.1845 0.0115325
3836 2 0.112688 0.222492 0.00882898
3840 1 0.116116 0.267822 0.0448245
3841 2 0.129802 0.287521 0.0418264
3842 2 0.124474 0.248571 0.0355079
3843 1 0.116116 0.267822 0.089649
3844 2 0.125969 0.290564 0.0874395
3845 2 0.12444 0.253075 0.0771676
3847 2 0.095801 0.332464 0.0516168
3848 2 0.122285 0.310725 0.0412781
3850 2 0.0976811 0.324491 0.0963222
3851 2 0.126471 0.31513 0.0820585
3664 4 0.177538 0.20957 0.0799306
3918 1 0.174175 0.200867 8.72605e-08
3919 2 0.164727 0.223918 0.00178804
3922 2 0.167227 0.313405 0.0526373
3987 1 0.232233 0.200867 1.44682e-07
3990 1 0.232233 0.200867 0.0448246
3991 2 0.221308 0.212983 0.0322703
3992 2 0.239318 0.179087 0.0376112
3993 1 0.232233 0.267822 1.13327e-07
3994 2 0.249396 0.251614 0.00109818
3996 1 0.232233 0.267822 0.0448246
3997 2 0.235283 0.261361 0.0283841
3998 2 0.216668 0.286112 0.0443735
3999 1 0.232233 0.267822 0.0896489
4000 2 0.226631 0.285153 0.0777652
4001 2 0.214836 0.267167 0.100323
4063 2 0.278139 0.181783 0.00658065
4067 2 0.269601 0.209187 0.0477146
4073 2 0.268173 0.265341 0.0443991
3513 3 0.371138 0.313701 0.0312815
3666 4 0.331674 0.237097 0.116972
4062 1 0.290291 0.200867 3.02193e-08
4065 1 0.290291 0.200867 0.0448244
4066 2 0.291808 0.179105 0.0538202
4068 1 0.290291 0.267822 3.59638e-08
4071 1 0.290291 0.267822 0.0448244
4072 2 0.29373 0.293112 0.0457427
4122 1 0.348349 0.200866 0.0448245
4123 2 0.355931 0.217614 0.0564253
4124 2 0.339175 0.215434 0.0326071
4130 2 0.345282 0.317056 0.101822
4191 1 0.406407 0.200866 -7.68363e-08
4192 2 0.389783 0.204561 0.0111219
4194 1 0.406407 0.200867 0.0896488
4195 2 0.414886 0.184395 0.101055
4196 2 0.408556 0.223836 0.0970882
4197 1 0.406407 0.267822 0.0896489
4198 2 0.423264 0.257233 0.0809941
4199 2 0.398347 0.248751 0.099282
4202 2 0.38761 0.330152 0.0982715
3622 4 0.55888 0.308554 0.0704837
3647 4 0.48236 0.27873 0.0443209
3692 4 0.511791 0.243185 0.106296
4367 2 0.462416 0.323441 0.10496
4521 1 0.522524 0.200867 0.0448246
4522 2 0.530052 0.182678 0.034218
4523 2 0.50054 0.201127 0.0422864
4524 1 0.522524 0.267822 8.6031e-08
4525 2 0.512372 0.246233 0.0049216
4528 2 0.507378 0.31809 0.0057436
4531 2 0.528081 0.321349 0.120498
4734 1 0.580582 0.200867 2.28193e-08
4736 2 0.589571 0.184711 0.0113753
4737 1 0.580582 0.200867 0.0448245
4738 2 0.579693 0.19007 0.0292736
4739 2 0.592548 0.184493 0.0542607
4740 1 0.580582 0.267822 -5.61215e-08
4741 2 0.572296 0.260485 0.0151489
4744 2 0.590717 0.311982 0.000643114
4905 1 0.63864 0.200867 1.58803e-07
4908 1 0.63864 0.200867 0.0448245
4909 2 0.62826 0.202186 0.0296737
4910 2 0.624086 0.210646 0.0560238
4911 1 0.63864 0.200867 0.0896488
4912 2 0.61865 0.212049 0.089103
4913 2 0.635921 0.180807 0.100127
4914 1 0.63864 0.267822 -1.43756e-07
4915 2 0.649755 0.288257 0.00580907
4916 2 0.640647 0.250387 0.0124861
4917 1 0.63864 0.267822 0.0448243
4918 2 0.649371 0.288556 0.0505883
4919 2 0.641519 0.250261 0.0571286
4920 1 0.63864 0.267822 0.0896488
4921 2 0.638844 0.286225 0.101596
4922 2 0.652483 0.24991 0.0956924
5061 1 0.696698 0.200867 0.0448244
5062 2 0.703448 0.216226 0.0575387
5063 2 0.712236 0.203493 0.0326772
5064 1 0.696698 0.200866 0.0896489
5065 2 0.703211 0.214816 0.103142
5066 2 0.706202 0.212288 0.0761492
5069 2 0.705241 0.213909 0.121252
5070 1 0.696698 0.267822 -1.30545e-07
5071 2 0.685756 0.271455 0.0147398
5073 1 0.696698 0.267822 0.0448245
5074 2 0.714235 0.268771 0.0553514
5075 2 0.701421 0.284707 0.0324363
5080 2 0.696834 0.324417 0.015698
3587 3 0.829256 0.315244 0.0729682
3660 4 0.827333 0.182484 0.0669785
5072 2 0.715567 0.281083 0.00187403
5160 1 0.754757 0.200867 0.0448245
5161 2 0.747082 0.177837 0.0401624
5162 2 0.736602 0.215567 0.045935
5163 1 0.754756 0.200867 0.0896489
5164 2 0.757215 0.186235 0.075685
5165 2 0.736696 0.191495 0.097443
5169 1 0.754757 0.267822 9.74379e-08
5172 1 0.754757 0.267822 0.0448245
5173 2 0.742301 0.281934 0.0342031
5174 2 0.744333 0.245209 0.0455979
5240 2 0.828788 0.202285 0.122576
5247 1 0.812815 0.267822 2.63267e-08
5248 2 0.80212 0.245426 0.00124471
5257 2 0.831614 0.321966 0.00321275
3506 3 0.977642 0.244445 0.112103
3595 3 0.952939 0.310323 0.0142616
3667 4 0.911484 0.184174 0.101371
3674 4 0.99319 0.203066 0.0574273
3699 4 0.919846 0.189928 0.0366805
3670 4 0.057622 0.414766 0.120623
3720 1 1.15686e-07 0.468689 0.0896489
3722 2 0.00565098 0.493207 0.0871805
3768 1 0.0580581 0.334778 -1.27109e-07
3770 2 0.0531074 0.359409 0.00283275
3771 1 0.0580582 0.334778 0.0448243
3773 2 0.0437987 0.350017 0.0531469
3774 1 0.058058 0.401733 0.0448245
3775 2 0.0712306 0.420982 0.0398193
3776 2 0.070208 0.380616 0.0422398
3777 1 0.0580581 0.468689 0.0448243
3778 2 0.045107 0.474112 0.0582922
3779 2 0.0782102 0.477111 0.0493722
3846 1 0.116116 0.334778 0.0448244
3849 1 0.116116 0.334778 0.0896489
3852 1 0.116116 0.401733 7.10745e-08
3853 2 0.129905 0.385178 0.00763982
3855 1 0.116116 0.401733 0.0448245
3856 2 0.131156 0.38436 0.0497676
3857 2 0.12053 0.405759 0.0282212
3858 1 0.116116 0.401733 0.089649
3859 2 0.133975 0.388284 0.0848152
3860 2 0.112802 0.41839 0.0768566
3867 1 0.116117 0.468689 0.0896488
3868 2 0.0980955 0.458362 0.0823569
3869 2 0.111002 0.470253 0.106318
3500 3 0.199919 0.344475 0.121183
3555 3 0.266208 0.37069 0.0892277
3592 3 0.241053 0.36226 0.0050077
3682 4 0.174747 0.471472 0.0191027
3921 1 0.174175 0.334778 0.0448245
3923 2 0.16172 0.336308 0.0306458
3924 1 0.174174 0.468689 0.089649
3925 2 0.193314 0.46626 0.0810724
3926 2 0.167018 0.492251 0.0857503
4005 1 0.232233 0.468689 0.089649
4006 2 0.224227 0.492242 0.0868718
4007 2 0.226665 0.455476 0.075584
4084 2 0.271682 0.481964 0.0417999
3502 3 0.34031 0.42592 0.104906
3562 3 0.301098 0.490578 0.120352
3590 3 0.396986 0.496804 0.0254216
4083 1 0.290291 0.468689 0.0448245
4085 2 0.287529 0.446747 0.0362089
4128 1 0.348349 0.334778 0.0896487
4129 2 0.350138 0.356859 0.0982577
4131 1 0.348349 0.401733 -1.10119e-08
4133 2 0.344656 0.425069 0.00650728
4134 1 0.348349 0.401733 0.0448244
4135 2 0.348322 0.42192 0.034246
4136 2 0.337528 0.409879 0.0587891
4200 1 0.406407 0.334778 0.0896489
4201 2 0.400198 0.34992 0.0766567
4204 2 0.3947 0.347872 0.122811
4209 1 0.406407 0.401734 -5.74931e-08
4210 2 0.427623 0.394105 0.000402474
4211 2 0.395078 0.382244 0.00691441
4212 1 0.406407 0.401733 0.0448244
4214 2 0.402012 0.377013 0.0478475
4215 1 0.406407 0.401733 0.0896489
4216 2 0.427538 0.409458 0.0883635
4217 2 0.407748 0.376374 0.09194
4213 2 0.428593 0.402968 0.0441463
4365 1 0.464465 0.334778 0.0896488
4366 2 0.484581 0.345672 0.0900461
4380 1 0.464465 0.401733 -1.35389e-07
4381 2 0.478496 0.421396 0.00198002
4382 2 0.454469 0.399413 0.0152503
4383 1 0.464465 0.401733 0.0448243
4384 2 0.474698 0.421367 0.0525292
4385 2 0.465172 0.382758 0.0563514
4386 1 0.464465 0.401733 0.0896488
4387 2 0.476329 0.419674 0.0977976
4388 2 0.47195 0.379534 0.0959955
4398 1 0.464466 0.468689 -6.47541e-08
4400 2 0.461391 0.474328 0.0165729
4527 1 0.522524 0.334778 3.54649e-08
4554 1 0.522524 0.401734 -4.30394e-08
4555 2 0.531229 0.382742 0.00936567
4584 1 0.522524 0.468689 -4.19889e-08
4586 2 0.515303 0.4509 0.011029
4587 1 0.522524 0.468689 0.089649
4588 2 0.530501 0.468858 0.0736303
4589 2 0.529483 0.446408 0.0962196
3593 3 0.655646 0.341743 0.0660981
3606 4 0.576077 0.438943 0.0366741
4743 1 0.580582 0.334778 -1.27428e-07
4745 2 0.583799 0.344889 0.0155741
4747 2 0.577423 0.354962 0.124178
4767 1 0.580582 0.468689 0.089649
4768 2 0.594686 0.454235 0.080575
4769 2 0.585459 0.492767 0.0851177
4929 1 0.63864 0.334778 -3.17732e-08
4930 2 0.653975 0.33709 0.0123274
4935 1 0.63864 0.401733 -1.41608e-07
4936 2 0.628564 0.405935 0.0150369
4937 2 0.660053 0.406978 0.00298487
4947 1 0.63864 0.468689 0.0896488
4948 2 0.658632 0.476413 0.0950864
4949 2 0.624448 0.485701 0.0963402
5079 1 0.696698 0.334778 -1.17064e-07
5085 1 0.696698 0.401733 9.29231e-08
5088 1 0.696698 0.401733 0.0448245
5089 2 0.698083 0.405742 0.0279071
5090 2 0.691509 0.424662 0.0513718
5097 1 0.696698 0.468689 0.0448245
5098 2 0.691537 0.469484 0.0281397
5099 2 0.694879 0.49299 0.0501054
5100 1 0.696698 0.468689 0.089649
5101 2 0.690415 0.470866 0.0732511
5102 2 0.683147 0.484507 0.0981893
3621 4 0.726616 0.339823 0.0835883
5181 1 0.754756 0.334778 -8.26505e-08
5182 2 0.754304 0.339594 0.0168531
5193 1 0.754756 0.401733 -1.40723e-07
5194 2 0.751123 0.414044 0.0147905
5195 2 0.772451 0.386933 0.00311865
5196 1 0.754756 0.401733 0.0448244
5197 2 0.762814 0.406955 0.0604327
5198 2 0.772529 0.402385 0.0345258
5205 1 0.754756 0.468689 0.0896488
5206 2 0.774764 0.46666 0.0970028
5207 2 0.742371 0.450918 0.097495
5256 1 0.812814 0.334778 -1.46493e-07
5258 2 0.803541 0.338175 0.0154307
5262 1 0.812815 0.401734 -2.76109e-09
5263 2 0.801293 0.386199 0.0103567
5265 1 0.812815 0.401734 0.0448245
5266 2 0.802576 0.383672 0.0540906
5267 2 0.82518 0.38865 0.0335693
5268 1 0.812814 0.401733 0.089649
5269 2 0.824631 0.380882 0.0855935
5270 2 0.808436 0.41288 0.0745681
5277 1 0.812815 0.468689 0.0448244
5278 2 0.807838 0.444695 0.0401602
5279 2 0.795472 0.476231 0.054299
3512 3 0.99979 0.385552 0.087165
3526 3 0.867533 0.469288 0.100035
3651 4 0.945333 0.484614 0.0461592
3721 2 0.979626 0.469747 0.0964764
5334 1 0.870873 0.334778 -1.24084e-07
5335 2 0.892643 0.335957 0.00337883
5336 2 0.861383 0.348693 0.0124128
5340 1 0.870873 0.401733 -1.47993e-07
5341 2 0.858587 0.388489 0.0112227
5342 2 0.874271 0.424373 0.00761174
5343 1 0.870873 0.401733 0.0448243
5344 2 0.862932 0.379463 0.0507132
5345 2 0.873982 0.415961 0.0588977
5352 1 0.870873 0.468689 0.0448245
5353 2 0.872755 0.482251 0.030333
5354 2 0.886773 0.478016 0.0550641
5403 1 0.928931 0.334778 0.089649
5404 2 0.927879 0.341967 0.0731953
5405 2 0.936875 0.355339 0.0978614
5406 1 0.928931 0.401734 6.98618e-08
5408 2 0.920946 0.379675 0.00620211
5409 1 0.928931 0.401734 0.0448245
5410 2 0.934558 0.398312 0.0283798
5411 2 0.923192 0.378368 0.0503235
5412 1 0.928931 0.401733 0.089649
5413 2 0.926448 0.402214 0.072597
5414 2 0.928388 0.376834 0.0937121
5416 2 0.935097 0.464612 0.118212
3656 4 0.00944059 0.617807 0.0327321
3723 1 -1.18997e-07 0.535645 2.00458e-08
3780 1 0.0580581 0.535644 0.0448243
3781 2 0.0751078 0.550939 0.0488771
3782 2 0.0475374 0.53167 0.0597069
3783 1 0.0580581 0.535644 0.0896488
3784 2 0.0689503 0.557991 0.0897746
3785 2 0.0580299 0.528083 0.106048
3789 1 0.0580582 0.6026 0.089649
3790 2 0.060937 0.626843 0.094767
3791 2 0.0553116 0.604242 0.0726536
3870 1 0.116117 0.535644 0.0448246
3871 2 0.098864 0.519504 0.0454272
3872 2 0.11229 0.55014 0.0309809
3873 1 0.116117 0.535644 0.0896489
3874 2 0.108006 0.511809 0.0888001
3875 2 0.0985844 0.550733 0.0866018
3876 1 0.116116 0.6026 0.0448244
3877 2 0.129927 0.620487 0.0509449
3878 2 0.128823 0.581746 0.0429818
3879 1 0.116116 0.6026 0.0896489
3880 2 0.126475 0.620462 0.099008
3881 2 0.131371 0.594901 0.0782793
3887 2 0.108889 0.664174 0.0289995
3582 3 0.173718 0.644316 0.0701695
3585 3 0.22277 0.566243 0.109037
3631 4 0.243176 0.644076 0.119245
3930 1 0.174175 0.6026 8.9831e-08
3938 2 0.166463 0.653031 0.0116927
4014 1 0.232233 0.535644 1.11446e-07
4017 1 0.232233 0.535644 0.0448246
4018 2 0.239179 0.556403 0.0363012
4019 2 0.211482 0.531817 0.03923
4023 1 0.232233 0.6026 -8.69765e-08
4024 2 0.213734 0.604473 0.00943347
4025 2 0.238465 0.578114 0.00163564
4026 1 0.232233 0.6026 0.0448244
4027 2 0.215491 0.601736 0.0560996
4028 2 0.241467 0.579313 0.0456482
4099 2 0.271487 0.610763 0.0823062
4103 2 0.284744 0.656564 0.0141617
3560 3 0.341981 0.623643 0.0293745
4089 1 0.290291 0.535645 0.0448245
4090 2 0.309874 0.527947 0.0511008
4091 2 0.289878 0.526495 0.0287957
4098 1 0.290291 0.6026 0.089649
4100 2 0.28897 0.577029 0.0889818
4140 1 0.348349 0.535644 0.0896488
4141 2 0.360274 0.557274 0.0893203
4142 2 0.335017 0.538264 0.10327
4149 1 0.348349 0.6026 0.0896489
4150 2 0.360812 0.581441 0.0907957
4151 2 0.362837 0.62131 0.0861079
4238 2 0.397827 0.524053 0.120673
4275 1 0.406407 0.6026 2.31204e-08
4277 2 0.390529 0.620524 0.000517921
4278 1 0.406407 0.6026 0.0448243
4279 2 0.421037 0.620449 0.0497422
4280 2 0.391283 0.602125 0.0573982
4281 1 0.406407 0.6026 0.0896488
4282 2 0.421299 0.620725 0.0935373
4283 2 0.392882 0.601774 0.103257
3529 3 0.469182 0.635374 0.0757853
3540 3 0.516818 0.562151 0.0779076
3648 4 0.447469 0.503248 0.0734346
4428 1 0.464465 0.535645 -5.98961e-08
4430 2 0.481597 0.52869 0.00989582
4432 2 0.453809 0.525843 0.120917
4455 1 0.464466 0.6026 -1.24586e-07
4456 2 0.468932 0.608163 0.0163945
4459 2 0.47539 0.61092 0.120603
4629 1 0.522524 0.535644 -8.52093e-08
4630 2 0.50174 0.543725 0.0027909
4631 2 0.535318 0.552813 0.0080533
4659 1 0.522524 0.6026 7.14742e-09
4660 2 0.536696 0.612101 0.0115915
4789 2 0.568093 0.514447 0.0443919
3655 4 0.678937 0.624231 0.0878282
3707 4 0.659556 0.631321 0.0130726
4788 1 0.580582 0.535644 0.0448243
4790 2 0.575168 0.546986 0.0596373
4791 1 0.580582 0.535645 0.0896488
4792 2 0.575025 0.512627 0.0834279
4793 2 0.580973 0.532412 0.106672
4795 2 0.577525 0.51906 0.121601
4821 1 0.580582 0.6026 0.0448244
4822 2 0.599608 0.605198 0.0361212
4823 2 0.578959 0.624113 0.0540737
4824 1 0.580582 0.6026 0.0896489
4825 2 0.596548 0.609543 0.0786491
4826 2 0.580897 0.620746 0.101769
4828 2 0.581829 0.623454 0.124538
4859 2 0.581236 0.666631 0.106692
4968 1 0.63864 0.535645 0.0448244
4969 2 0.64077 0.527399 0.0609913
4970 2 0.647731 0.517076 0.035298
4971 1 0.63864 0.535645 0.0896489
4972 2 0.65403 0.5247 0.0996332
4973 2 0.642 0.525399 0.074132
4976 2 0.643131 0.532608 0.117788
5017 2 0.646848 0.62042 0.123887
5103 1 0.696698 0.535645 0.0896489
5104 2 0.676131 0.528239 0.085428
5105 2 0.707389 0.513823 0.0932539
3530 3 0.759126 0.535827 0.0260418
3554 3 0.814082 0.666169 0.0825108
5108 2 0.714324 0.534912 0.124027
5208 1 0.754756 0.535644 0.0896489
5209 2 0.75831 0.555948 0.0795365
5210 2 0.774758 0.530101 0.0961532
5214 1 0.754756 0.6026 0.089649
5215 2 0.768069 0.619611 0.0973432
5216 2 0.759549 0.604774 0.0729535
5286 1 0.812815 0.6026 -1.26334e-07
5287 2 0.814261 0.594356 0.0162123
5289 1 0.812815 0.6026 0.0448243
5290 2 0.818684 0.589896 0.0590256
5291 2 0.794989 0.616242 0.0494854
5296 2 0.813898 0.644298 0.00281397
5372 2 0.849975 0.663348 0.0407054
3646 4 0.968619 0.562338 0.0602437
3694 4 0.863756 0.559767 0.0722459
3725 2 0.995533 0.51187 0.0054158
5355 1 0.870873 0.535645 6.68068e-08
5356 2 0.880842 0.514796 0.00636353
5361 1 0.870873 0.6026 1.41961e-07
5365 2 0.861369 0.598964 0.119151
5418 1 0.928931 0.535644 1.01143e-07
5420 2 0.950458 0.536461 0.00424287
5427 1 0.928931 0.6026 9.56381e-08
5428 2 0.908726 0.593102 0.00328088
5437 2 0.938828 0.646652 0.00102605
5440 2 0.946054 0.66218 0.0350573
3509 3 0.0765049 0.674827 0.119693
3544 3 0.0107822 0.766992 0.0903602
3744 1 -1.25817e-07 0.736511 5.67852e-08
3746 2 0.00840459 0.756311 0.00875953
3747 1 1.90054e-07 0.803467 4.12545e-08
3798 1 0.0580583 0.669556 4.5376e-08
3804 1 0.058058 0.736511 -7.56118e-08
3806 2 0.0607345 0.732463 0.0168205
3807 1 0.058058 0.736511 0.0448244
3808 2 0.0766072 0.736791 0.0353683
3809 2 0.0646804 0.728347 0.060269
3810 1 0.0580581 0.803466 -1.30608e-07
3811 2 0.0600073 0.794144 0.0159162
3812 2 0.0677373 0.82652 0.000705696
3813 1 0.058058 0.803466 0.0448244
3814 2 0.0796787 0.798558 0.047085
3815 2 0.0560304 0.828522 0.0480993
3882 1 0.116116 0.669556 1.32441e-07
3885 1 0.116116 0.669555 0.0448246
3886 2 0.120901 0.694581 0.0443743
3894 1 0.116117 0.736511 0.0448244
3895 2 0.112975 0.761738 0.0466775
3896 2 0.0956927 0.726464 0.0456356
3897 1 0.116117 0.736511 0.0896489
3898 2 0.10302 0.739946 0.103324
3899 2 0.108269 0.715296 0.0821575
3906 1 0.116117 0.803467 0.0448245
3907 2 0.107249 0.813065 0.0304587
3908 2 0.102137 0.78481 0.0495217
3600 4 0.24553 0.704319 0.0417868
3645 4 0.158742 0.770954 0.00658038
3669 4 0.263157 0.755186 0.115422
3936 1 0.174175 0.669556 -3.77944e-08
3942 1 0.174175 0.736511 0.0896491
3943 2 0.16115 0.729181 0.0766354
3944 2 0.186567 0.755451 0.0831498
3951 1 0.174175 0.803467 0.0896489
3952 2 0.174356 0.778206 0.0925696
3953 2 0.153255 0.80858 0.0849618
3505 3 0.317867 0.817883 0.0312779
3688 4 0.390603 0.6832 0.120417
4101 1 0.290291 0.669555 -1.57119e-07
4102 2 0.299374 0.69127 0.00583403
4164 1 0.348349 0.736511 0.0448245
4165 2 0.342647 0.756315 0.0348553
4166 2 0.329306 0.723906 0.0475032
4167 1 0.348349 0.736511 0.0896489
4168 2 0.338022 0.757982 0.0945835
4169 2 0.332322 0.718754 0.0893183
4176 1 0.348349 0.803466 0.0896488
4177 2 0.35601 0.812735 0.104517
4178 2 0.327213 0.811344 0.0889726
4320 1 0.406407 0.669555 2.96385e-08
4322 2 0.422194 0.675748 0.0113488
4323 1 0.406407 0.669555 0.0448244
4324 2 0.400301 0.692416 0.0386517
4325 2 0.421194 0.675002 0.0571091
4329 1 0.406407 0.736511 0.0448243
4330 2 0.402483 0.759192 0.0522272
4331 2 0.408046 0.720076 0.0579348
4335 1 0.406407 0.803466 0.089649
4336 2 0.411943 0.828112 0.0876359
4337 2 0.396709 0.796977 0.0748298
3576 3 0.507393 0.711081 0.106929
3687 4 0.558186 0.70346 0.00864399
4479 1 0.464465 0.669555 9.19841e-08
4480 2 0.46677 0.694824 0.00228098
4497 1 0.464465 0.736511 1.47763e-08
4498 2 0.478235 0.744116 0.0124739
4500 1 0.464465 0.736511 0.0448244
4501 2 0.465955 0.752443 0.0582209
4502 2 0.459914 0.751762 0.0314845
4503 1 0.464465 0.803467 0.0896488
4504 2 0.478656 0.789176 0.0805396
4505 2 0.469825 0.798806 0.10601
4695 1 0.522524 0.803467 1.41749e-07
4698 1 0.522524 0.803467 0.089649
4699 2 0.512707 0.790803 0.0767948
4700 2 0.508454 0.82251 0.0933903
3508 3 0.659706 0.718214 0.122319
3536 3 0.649187 0.745073 0.0704251
3611 4 0.648822 0.799532 0.123396
4857 1 0.580582 0.669555 0.0896488
4858 2 0.597783 0.684905 0.0861026
4869 1 0.580582 0.736511 0.0896487
4870 2 0.577081 0.719392 0.102135
4871 2 0.583211 0.758806 0.0978735
4878 1 0.580582 0.803467 -6.67286e-08
4880 2 0.582594 0.797739 0.0166562
4881 1 0.580582 0.803466 0.0896489
4882 2 0.588036 0.810503 0.0741818
4883 2 0.597378 0.808736 0.100323
5043 1 0.63864 0.736511 -1.24381e-07
5044 2 0.641402 0.711084 0.000479009
5045 2 0.630113 0.742405 0.0153503
5049 1 0.63864 0.803466 9.60958e-08
5050 2 0.634624 0.82786 0.0042714
5127 1 0.696698 0.803467 1.48439e-07
5130 1 0.696698 0.803467 0.0448246
5131 2 0.702727 0.824663 0.0363679
5132 2 0.683206 0.791133 0.0339683
3507 3 0.74637 0.734256 0.0266543
3581 3 0.753831 0.713736 0.117856
3601 4 0.746913 0.818164 0.0829373
5295 1 0.812814 0.669556 1.00701e-08
5301 1 0.812814 0.736511 0.0448246
5302 2 0.831028 0.721819 0.044552
5303 2 0.808473 0.741252 0.0282947
5307 1 0.812815 0.803466 0.0448244
5308 2 0.795321 0.819031 0.0429408
5309 2 0.824836 0.814228 0.057334
5378 2 0.856771 0.739863 0.102725
5387 2 0.854955 0.803444 0.0776691
3695 4 0.974281 0.679636 0.0980799
3748 2 0.988815 0.784751 0.007936
5367 1 0.870873 0.669555 2.47778e-08
5368 2 0.871073 0.694912 0.00251995
5370 1 0.870873 0.669555 0.0448245
5371 2 0.869996 0.694573 0.0485101
5373 1 0.870873 0.736511 0.0448243
5374 2 0.858472 0.71971 0.0535629
5375 2 0.862328 0.759395 0.0488647
5376 1 0.870873 0.736511 0.0896488
5377 2 0.882195 0.715303 0.0937156
5382 1 0.870873 0.803467 0.0448246
5383 2 0.888731 0.788434 0.0466005
5384 2 0.861538 0.795802 0.0301181
5385 1 0.870873 0.803466 0.089649
5386 2 0.887387 0.817158 0.0827229
5436 1 0.928931 0.669556 -1.24468e-07
5438 2 0.933964 0.681124 0.0148144
5439 1 0.928931 0.669556 0.0448244
5441 2 0.938081 0.675407 0.0599669
5445 1 0.928931 0.736511 -3.48858e-09
5446 2 0.942573 0.735161 0.0135198
5448 1 0.928931 0.736511 0.0448246
5449 2 0.950029 0.73983 0.0398973
5450 2 0.917119 0.738852 0.0303705
5454 1 0.928931 0.803466 0.0896488
5455 2 0.924654 0.82234 0.100784
5456 2 0.950708 0.799021 0.0913793
3538 3 0.0954241 0.866124 0.0758235
3659 4 0.0647208 0.93795 0.0522483
3758 2 0.0387989 0.987623 0.0874614
3822 1 0.0580584 0.870422 6.79947e-08
3827 2 0.106266 0.982249 0.00977193
3829 2 0.101879 0.995378 0.0768371
3830 2 0.130778 0.980771 0.0888103
3584 3 0.246776 0.848364 0.00664941
3623 4 0.256583 0.906091 0.101059
3913 2 0.181783 0.998108 0.0160759
3960 1 0.174175 0.870422 0.0448245
3961 2 0.153921 0.879042 0.0489131
3962 2 0.176357 0.875795 0.0281282
3968 2 0.237193 0.977854 0.0370738
3608 4 0.331696 0.887545 0.0633553
3689 4 0.37852 0.962994 0.0165205
4341 1 0.406407 0.870422 0.0896488
4342 2 0.41459 0.849394 0.0971618
4343 2 0.412362 0.889628 0.100046
3550 3 0.430684 0.851022 0.0381043
3577 3 0.559078 0.997541 0.105324
4349 2 0.484662 0.996465 0.0515921
4352 2 0.486197 0.997021 0.0866369
4506 1 0.464465 0.870422 0.0896489
4507 2 0.447022 0.855041 0.0923207
4508 2 0.480642 0.854695 0.0843855
4704 1 0.522524 0.870422 5.13644e-08
4706 2 0.536547 0.851643 0.00438945
4707 1 0.522524 0.870422 0.089649
4708 2 0.507644 0.851665 0.0918616
4709 2 0.518807 0.878935 0.0737168
4715 2 0.566365 0.999317 0.0580097
3541 3 0.57177 0.854041 0.0445689
3612 4 0.621837 0.910934 0.0549609
4888 2 0.617503 0.992118 0.0442055
4889 2 0.644124 0.998437 0.0614232
5057 2 0.680415 0.986433 0.00734867
5059 2 0.696227 0.996984 0.0618636
5060 2 0.700278 0.976423 0.0386787
5136 1 0.696698 0.870422 -4.56241e-08
5137 2 0.679411 0.854331 0.00060389
5138 2 0.688429 0.892914 0.00520248
5139 1 0.696698 0.870422 0.0448244
5140 2 0.691906 0.84626 0.0404427
5141 2 0.684446 0.874802 0.0588411
3624 4 0.744865 0.960209 0.106821
5143 2 0.742531 0.995687 0.0588642
5226 1 0.754756 0.870422 -1.32828e-07
5227 2 0.750003 0.894821 0.003776
5228 2 0.746441 0.856981 0.0131284
5230 2 0.829277 0.985846 0.0382513
5310 1 0.812814 0.870422 0.0448244
5311 2 0.810412 0.847705 0.0370907
5312 2 0.82804 0.866273 0.0570167
5313 1 0.812814 0.870422 0.0896489
5314 2 0.810437 0.847723 0.0818868
5315 2 0.828102 0.866283 0.101796
3551 3 0.994566 0.919283 0.0144527
3703 4 0.957738 0.860032 0.0539303
5317 2 0.860391 0.991232 0.0308745
5318 2 0.892477 0.997614 0.0411144
5391 1 0.870873 0.870422 0.0448243
5392 2 0.871269 0.875546 0.0616376
5393 2 0.870263 0.84483 0.0439363
5394 1 0.870873 0.870422 0.0896489
5395 2 0.880823 0.86137 0.103749
5396 2 0.879801 0.856947 0.0767783
1 8 0.0909062 0.0637476 0.17006
3 8 0.0769894 0.134828 0.177633
295 6 0.0745373 0.0462921 0.17006
296 7 0.119786 0.0301504 0.240474
324 6 0.0591416 0.119421 0.177633
325 5 0.0674526 0.0788631 0.191602
327 7 0.0137604 0.103103 0.24754
328 7 0.0369681 0.0629224 0.208617
329 7 0.100126 0.0848096 0.20935
333 5 0.129689 0.0696982 0.226773
335 7 0.13876 0.103103 0.24754
396 5 0.00468914 0.0696983 0.226773
832 7 0.0569684 0.15644 0.240594
2 8 0.213069 0.0667254 0.17006
4 8 0.199557 0.137995 0.177633
298 6 0.199537 0.0462921 0.17006
299 7 0.244786 0.0301504 0.240474
330 6 0.184142 0.119421 0.177633
332 5 0.192453 0.078863 0.191602
336 7 0.161968 0.0629224 0.208617
357 7 0.225126 0.0848097 0.20935
360 5 0.254689 0.0696982 0.226773
362 7 0.26376 0.103103 0.24754
843 7 0.181968 0.15644 0.240594
5 8 0.320303 0.141677 0.177633
309 6 0.324537 0.0462921 0.17006
310 7 0.369786 0.0301505 0.240474
358 6 0.309142 0.119421 0.177633
359 5 0.317453 0.0788631 0.191602
363 7 0.286968 0.0629224 0.208617
364 7 0.350126 0.0848097 0.20935
368 5 0.379689 0.0696983 0.226773
370 7 0.38876 0.103103 0.24754
371 7 0.411968 0.0629224 0.208617
922 7 0.306968 0.15644 0.240594
3416 3 0.33447 0.0719749 0.17006
6 8 0.438505 0.144634 0.177633
138 8 0.570387 0.0715536 0.17006
142 8 0.555209 0.144728 0.177633
312 6 0.449537 0.0462921 0.17006
320 7 0.475126 0.0848097 0.20935
365 6 0.434142 0.119421 0.177633
367 5 0.442453 0.0788631 0.191602
556 7 0.494786 0.0301505 0.240474
959 7 0.431968 0.15644 0.240594
1916 6 0.559142 0.119421 0.177633
1917 5 0.567453 0.0788631 0.191602
1919 7 0.51376 0.103103 0.24754
1920 7 0.536968 0.0629224 0.208617
1990 5 0.504689 0.0696983 0.226773
2283 7 0.556968 0.15644 0.240594
3417 3 0.45264 0.0741849 0.17006
139 8 0.689453 0.0692223 0.17006
143 8 0.673278 0.141873 0.177633
1883 6 0.574537 0.0462921 0.17006
1884 7 0.619786 0.0301504 0.240474
1886 6 0.699537 0.0462921 0.17006
1921 7 0.600126 0.0848096 0.20935
1922 6 0.684142 0.119421 0.177633
1924 5 0.692453 0.078863 0.191602
1925 5 0.629689 0.0696982 0.226773
1927 7 0.63876 0.103103 0.24754
1928 7 0.661968 0.0629224 0.208617
2294 7 0.681968 0.15644 0.240594
140 8 0.81035 0.0661256 0.17006
144 8 0.7939 0.138185 0.177633
1887 7 0.744786 0.0301504 0.240474
1897 6 0.824537 0.0462921 0.17006
1948 7 0.725126 0.0848097 0.20935
1949 6 0.809142 0.119421 0.177633
1950 5 0.817453 0.0788631 0.191602
1951 5 0.754689 0.0696982 0.226773
1953 7 0.76376 0.103103 0.24754
1954 7 0.786968 0.0629224 0.208617
1955 7 0.850126 0.0848097 0.20935
2342 7 0.806968 0.15644 0.240594
5151 1 0.754756 0.0669557 0.134473
5152 2 0.776655 0.0628613 0.135563
141 8 0.93276 0.0632246 0.17006
145 8 0.916393 0.13498 0.177633
1898 7 0.869786 0.0301505 0.240474
1900 6 0.949537 0.0462921 0.17006
1956 6 0.934142 0.119421 0.177633
1958 5 0.942453 0.0788631 0.191602
1959 5 0.879689 0.0696983 0.226773
1961 7 0.88876 0.103103 0.24754
1962 7 0.911968 0.0629224 0.208617
1988 7 0.975126 0.0848097 0.20935
2005 7 0.994786 0.0301505 0.240474