LAMMPS data file via write_data, version 2 Jun 2022, timestep = 20000

7970 atoms
8 atom types
7158 bonds
3 bond types
9794 angles
4 angle types

-21.93549789504731 21.93549789504731 xlo xhi
-18.917464008457394 18.917464008457394 ylo yhi
-33.855509291744305 33.855509291744305 zlo zhi

Masses

1 15.9994
2 1.008
3 22.98977
4 35.45
5 32.06
6 15.9994
7 15.9994
8 1.008

Pair Coeffs # lj/cut/tip4p/long

1 0.18481 3.165
2 0 0
3 0.10755 2.31
4 0.10038 4.3
5 0.093 3.6972
6 0.122 3.0914
7 0.054 3.09142
8 0.015 0.96662

Bond Coeffs # harmonic

1 0 0.9572
2 285 1.68
3 495 0.945

Angle Coeffs # harmonic

1 0 104.52
2 100 149
3 50 115
4 100 109.5

Atoms # full

4045 244 4 -1 -16.29899836401328 -18.51678038819817 -31.248848926366758 0 0 0
4696 510 2 0.527 -18.421997624390144 -14.610224587757099 -31.621501560527328 0 0 0
4721 518 2 0.527 -18.651825982076303 -17.53297751728373 -32.0595007189979 0 0 1
4695 510 1 -1.054 -18.91005156582878 -14.768755864581339 -30.81348364664856 0 0 0
4697 510 2 0.527 -18.236342555260475 -14.945950507693444 -30.157024823491735 0 0 0
2 1 8 0.4 -18.852691047924843 -15.937265577699389 -28.198975062933865 0 0 0
478 1 6 -0.675 -19.599924071854854 -16.554447777145487 -28.23050501064354 0 0 0
479 1 6 -0.9 -17.14989974241526 -15.752405244533186 -29.166124805717747 0 0 0
3814 13 3 1 -18.124820395007617 -18.19169198510856 -29.189528641002937 0 1 0
4719 518 1 -1.054 -19.26162082876478 -17.379447752308582 -31.33783611606478 0 0 1
4720 518 2 0.527 -19.16444217914942 -16.448992182432512 -31.135366980964342 0 0 1
481 1 5 0.35 -15.9251873050915 -15.884776682251209 -28.008065774081174 0 0 0
791 1 5 1.1 -21.20557191976734 -16.025660341707063 -27.810083027504767 0 0 0
4706 513 2 0.527 -20.865694362184453 -18.764744378876337 -30.806146705370793 0 0 1
4396 410 2 0.527 -20.30321220977057 -13.614734617081899 -30.21834878570992 0 0 0
4269 368 1 -1.054 -21.6879687838383 -17.124702875712632 -32.113696074932385 0 0 0
4271 368 2 0.527 -20.743966736525397 -17.11177408855574 -31.955863425204114 0 0 0
63 1 8 0.4 -16.544134763016764 -13.085999207040942 -28.253728665763184 0 0 0
221 1 8 0.4 -21.754239660786133 -14.806898843277516 -29.573136738463408 1 0 0
2327 1 6 -0.675 21.80745611493248 -15.656374037735867 -29.253511531556153 0 0 0
5747 860 2 0.527 -17.60478605545002 -12.59392871093032 -32.59625047420901 0 0 1
4172 335 2 0.527 5.767581916634647 -7.640381782888699 -33.609413644056566 -1 0 0
6853 1229 2 0.527 -21.420393820717113 -3.1712182959470585 -33.5079334550071 1 0 1
2851 1 5 1.1 19.52549580732978 16.895728387275476 -3.7371248345547805 0 0 0
4378 404 2 0.527 21.52458782309068 -13.543929039610017 -32.88181047500651 -1 1 0
6975 1270 1 -1.054 2.4688801252378916 3.7100831814091784 -33.60593175398124 0 0 1
4090 289 4 -1 -16.604345801184326 -14.37534322720343 -32.931676520388514 0 1 0
4109 308 4 -1 -1.3142285005403025 -18.760616703813614 -33.33868711260766 0 0 1
4267 367 2 0.527 -15.610474117257727 -18.179720969169743 -33.423554747975736 0 0 0
3803 2 3 1 -15.839622567698354 -15.946584858311578 -30.87515802187231 0 0 0
4453 429 2 0.527 -12.675913561866972 -16.66264456016641 -33.57764816149619 0 0 0
4452 429 1 -1.054 -12.749343008279673 -16.13886878594977 -32.77985148108004 0 0 0
4454 429 2 0.527 -13.014154249508916 -16.764478060224935 -32.10554046575653 0 0 0
4584 473 1 -1.054 -12.953723017754424 -17.6225755514807 -30.62671366873247 0 0 0
484 1 6 -0.9 -14.582458917370069 -16.290160101983954 -28.962027356237652 0 0 0
3 1 8 0.4 -12.843283086186043 -15.582521662170496 -28.820111225164545 0 0 0
486 1 6 -0.675 -11.906838615288068 -15.336910619362602 -29.015472545003682 0 0 0
65 1 8 0.4 -12.042127162185228 -13.543436574573409 -29.289129241906192 0 0 0
3804 3 3 1 -14.461256043402118 -18.34653289773011 -28.208074627112545 0 0 0
487 1 5 1.1 -10.61154885386764 -15.750201506719282 -27.93677592327836 0 0 0
4585 473 2 0.527 -13.429398727814482 -17.029826583598794 -30.044830483146928 0 0 0
4693 509 2 0.527 -11.086367775441756 -18.211730540577467 -30.550083473211537 0 0 0
4694 509 2 0.527 -9.841946089168664 -17.4819226419815 -30.09113198352662 0 0 0
4692 509 1 -1.054 -10.130512531083419 -18.25317727622345 -30.5790787821181 0 0 0
5191 675 2 0.527 -11.07343489440461 -15.694862907464753 -32.23934058895076 0 0 1
5374 736 2 0.527 -9.76249836156595 -12.639197355009845 -32.40990303396444 0 0 0
4586 473 2 0.527 -13.577340095420915 -18.32320943111048 -30.817536426728633 0 0 0
5750 861 2 0.527 -4.194335848461211 -3.52009932158588 -33.43473698825948 0 0 0
5192 675 2 0.527 -9.808294813911399 -14.894058865293841 -32.01579950537679 0 0 1
5190 675 1 -1.054 -10.124136453890479 -15.730885122109509 -32.35661845198417 0 0 1
4866 567 1 -1.054 -8.088744266447494 -13.645464201712482 -29.986419959225096 0 0 1
490 1 6 -0.675 -9.300151063990612 -16.130958378504676 -28.91402929047736 0 0 0
4726 520 2 0.527 -6.469880588665852 -16.697838950433937 -32.22192098807093 0 0 0
4725 520 1 -1.054 -7.094325250379489 -16.121451450834346 -31.781407013365126 0 0 0
4006 205 3 1 -8.983698518824687 -17.609864992551795 -32.92156361468903 0 0 1
6805 1213 2 0.527 -4.84512030567252 -13.555289001651836 -29.953204036609748 0 0 1
4727 520 2 0.527 -6.7480434356828045 -16.025835854797318 -30.894180927222155 0 0 0
4 1 8 0.4 -8.78168983697952 -15.45162524203209 -29.364081534383406 0 0 0
496 1 6 -0.675 -3.2336727494700916 -15.282146014719219 -27.63840140361384 0 0 0
6804 1213 1 -1.054 -4.770068980591656 -12.883542448020982 -30.630941330282713 0 0 1
6806 1213 2 0.527 -5.4543530157170395 -12.249346077223365 -30.417041393131747 0 0 1
5 1 8 0.4 -5.2513656442546655 -16.623323312609777 -29.68066085008122 0 0 0
491 1 6 -0.675 -5.422615153340995 -15.777576520914321 -29.26532246973766 0 0 0
493 1 5 1.1 -4.955725067188894 -15.543294409240904 -27.628342066811214 0 0 0
4868 567 2 0.527 -7.663817807391922 -12.808252815662557 -29.800125516199547 0 0 1
4354 396 2 0.527 20.112241660324297 -5.055551464532453 -33.4853862429469 -1 0 1
5601 812 1 -1.054 -2.729107012111612 -14.917521085125582 -31.805689354307255 0 1 0
8 1 8 0.4 -2.67122642411481 -15.786627423439361 -28.22984456463353 0 0 0
6113 982 2 0.527 -2.8444725566650995 -17.66914285458765 -29.576113571860102 0 1 1
5603 812 2 0.527 -3.5450699193971893 -14.46012813902427 -31.602695554900066 0 1 0
6112 982 2 0.527 -1.5828861227554327 -17.868143876153518 -28.763302084331112 0 1 1
5602 812 2 0.527 -2.4045446030655775 -14.489218207266028 -32.597795059850235 0 1 0
6111 982 1 -1.054 -2.1178140544330937 -17.190718679057362 -29.177004027005236 0 1 1
6320 1051 2 0.527 2.448234593218988 -18.621835102532117 -30.220959414558916 0 0 1
209 1 8 0.4 -0.44325114291372714 -15.764329086936767 -29.470235323564978 0 0 0
2220 1 6 -0.675 0.47461816629417797 -15.784615838443116 -29.221093629132504 0 0 0
3911 110 3 1 -3.2368885333423734 -17.313637369059972 -32.4770515486322 0 1 0
6318 1051 1 -1.054 3.2986019278696936 -18.48851940970188 -29.802246041632586 0 0 1
1 1 8 0.4 2.6556059822313287 -17.373239390352577 -27.760137798170035 0 0 0
4286 373 2 0.527 1.997087926107458 -14.59907625232124 -31.876983603525655 -1 0 0
2394 1 5 1.1 0.7681971841119406 -16.1549728353425 -27.51192247290474 0 0 0
4870 568 2 0.527 -1.4502357476806225 -12.092434275236764 -28.49686166868211 0 0 0
470 1 6 -0.675 2.3939855687159444 -16.530083692489875 -27.402163213528606 0 0 0
6160 998 2 0.527 1.1195509159548642 -12.331482211750227 -27.91727453049107 0 0 0
4285 373 2 0.527 1.6167169923380627 -14.729748837748657 -30.417491084806706 -1 0 0
4284 373 1 -1.054 2.321303232694767 -14.430699552262721 -30.99224839422175 -1 0 0
4728 521 1 -1.054 0.9369317503897037 18.280670628943874 -31.124804146029646 0 -1 0
6319 1051 2 0.527 3.8063370351601726 -17.99096092944507 -30.44322346689008 0 0 1
6159 998 1 -1.054 1.98029806180217 -11.927256374967786 -28.026489860945155 0 0 0
7139 1324 2 0.527 7.385549990389652 -13.5446412776337 -31.87726294167596 0 0 0
7137 1324 1 -1.054 6.625976022809667 -13.207484851928825 -31.402301964268677 0 0 0
3950 149 3 1 4.586376860777946 -14.177219886907682 -30.95819667874391 0 1 1
4101 300 4 -1 4.728169053161494 -17.311916019664807 -32.62350562970771 0 0 0
7182 1339 1 -1.054 4.2787551013493115 -14.237653403461705 -33.30778349322414 0 0 1
211 1 8 0.4 3.499819232798494 -15.811128089343113 -28.854201252915946 0 0 0
212 1 8 0.4 6.98692356577455 -17.70000099933639 -29.47010836169715 0 0 0
2222 1 6 -0.675 4.374257946095696 -15.733830800350079 -29.2540925850842 0 0 0
2224 1 5 1.1 5.719315242840061 -16.355549972677856 -28.28193384208211 0 0 0
2227 1 6 -0.675 6.9615034072742255 -16.74554817652478 -29.411009849631178 0 0 0
213 1 8 0.4 8.743303896113463 -15.962914980663864 -28.707086003373295 0 0 0
6384 1073 1 -1.054 4.655210145974742 -12.891571248444158 -28.84701471472534 0 0 0
7138 1324 2 0.527 6.971881703924872 -12.951246510947014 -30.547368326248765 0 0 0
2172 1 7 -0.55 5.312526860931509 -17.721686061035886 -27.30768843585264 0 0 0
4619 484 2 0.527 -11.177110980282528 0.4460789220809467 -33.31059424378751 0 0 0
4138 324 2 0.527 7.0469268245217975 -11.481636546784408 -32.418130617354144 -1 0 0
6643 1159 2 0.527 6.5428669168845275 -18.52501686949744 -32.34224757624917 0 0 0
2827 1 7 -0.55 20.76331878445919 12.66711562844636 -4.56930588183992 0 0 0
6385 1073 2 0.527 3.9191061869081523 -12.603919017828705 -28.306992335530175 0 0 0
6386 1073 2 0.527 5.333588202700394 -12.232797038449515 -28.698613297608347 0 0 0
7583 1472 2 0.527 3.4348096873121037 18.829128173996466 -32.701500966577406 0 -1 0
4260 365 1 -1.054 -20.179233707850425 5.883939135972259 -33.69068968941179 0 0 1
7585 1473 2 0.527 8.43207838543406 -18.082005766994165 -31.707653398391276 0 0 0
6809 1214 2 0.527 10.27818086114836 -16.209287203148804 -31.539312338227397 0 0 0
7586 1473 2 0.527 8.61086149164133 -17.04361389897966 -30.620635888482347 0 0 0
7584 1473 1 -1.054 9.075499043553485 -17.47904817574281 -31.335285684741237 0 0 0
7735 1523 2 0.527 10.479093790934204 -12.761889241598471 -30.303221673847567 0 0 0
4287 374 1 -1.054 14.221903303425702 -18.3099474094628 -30.70908917632324 -1 0 0
6662 1165 2 0.527 12.161021732075998 -14.338402310680973 -32.14641529659422 0 0 1
4288 374 2 0.527 14.017405661694614 -17.905334347173415 -31.55211115397758 -1 0 0
6807 1214 1 -1.054 11.110042716944246 -15.738121885675197 -31.58641737489719 0 0 0
7736 1523 2 0.527 10.288879823034687 -14.10231935016875 -29.625827990986842 0 0 0
7734 1523 1 -1.054 10.700836116550516 -13.246392291984534 -29.508048035219918 0 0 0
3909 108 3 1 12.012712945214329 -18.50045374984416 -29.841684297609728 0 1 0
2229 1 6 -0.675 9.61077947505558 -15.630428924989573 -28.921876236104683 0 0 0
2233 1 6 -0.9 12.174030360689596 -16.33364291373042 -29.13304428411869 0 0 0
3850 49 3 1 13.324339316400359 -13.556381243898613 -29.374595339927012 0 0 0
214 1 8 0.4 14.287920973920354 -16.008680013524316 -29.002579857327987 0 0 0
2234 1 6 -0.675 14.877135466782367 -15.294221050159312 -28.761554654794217 0 0 0
6660 1165 1 -1.054 12.878175148231822 -13.705057492448827 -32.11868236339171 0 0 1
6661 1165 2 0.527 13.624356237133302 -14.170730302003761 -32.49627291349303 0 0 1
4289 374 2 0.527 15.17834032195027 -18.31609085877722 -30.67156062785939 -1 0 0
2230 1 5 0.725 10.96894810383213 -16.028503858246783 -27.9334617064379 0 0 0
6650 1161 2 0.527 9.613929764365732 -14.08392719634401 -32.81090333428761 0 0 0
6808 1214 2 0.527 11.482229115304737 -15.819902870720643 -30.708344302626447 0 0 0
6648 1161 1 -1.054 9.087491769686636 -13.46166628767038 -32.30904693725712 0 0 0
6649 1161 2 0.527 9.578340007705055 -12.641145960656758 -32.35384885021738 0 0 0
4564 466 2 0.527 15.087704992402347 -16.276760205086855 -33.271271950291606 -1 0 0
2174 1 7 -0.55 10.686328121131577 -17.488836672487395 -27.063579084529014 0 0 0
4379 404 2 0.527 -21.572808165868047 -12.612819752954081 -31.97273945391486 0 1 0
4147 327 2 0.527 -7.324494578564323 -10.646113615887597 -33.774562707784575 0 0 1
4683 506 1 -1.054 19.82982044409123 -15.590845532931715 -32.69884273359671 -1 1 0
4684 506 2 0.527 20.63494399986511 -15.979832541293884 -32.357260488582476 -1 1 0
4077 276 4 -1 15.978187645667337 -14.803201886232188 -32.0930531303968 -1 0 0
3916 115 3 1 18.04643980017833 -16.448984867546507 -31.302619311744266 0 0 1
4128 321 1 -1.054 19.640114056432555 -17.44698780066462 -29.86887096507126 -1 0 0
4130 321 2 0.527 20.47238287182262 -17.15789702529546 -29.494742320875673 -1 0 0
215 1 8 0.4 18.178807714322506 -16.489734337568187 -29.10306714844834 0 0 0
2239 1 6 -0.675 17.373331238321622 -15.967019906551663 -29.28669250345071 0 0 0
4381 405 2 0.527 17.153119215238103 -12.831848434120552 -31.609549794663106 -1 1 0
2236 1 5 1.1 16.272397609409243 -15.859265572299442 -27.97525195487505 0 0 0
4129 321 2 0.527 19.885440770988236 -18.10133777070987 -30.5229698233304 -1 0 0
4579 471 2 0.527 16.182694903206016 -5.345982563666674 -33.63718724381427 -1 0 0
4377 404 1 -1.054 -21.622614743200288 -12.917577534673237 -32.8787541932841 0 1 0
2970 1 7 -0.55 21.76179885899902 -17.36203647824712 -27.16017320162044 0 0 0
2613 1 7 -0.55 18.883512253403442 -12.7193296082537 -27.301199643276924 0 0 0
4395 410 1 -1.054 -21.087771809148943 -13.111585476905367 -30.000367817830984 0 0 0
4397 410 2 0.527 -20.759609538031064 -12.351447625119043 -29.52005872517666 0 0 0
4357 397 2 0.527 -16.60466982567608 -9.375084816779921 -30.860662952406496 0 0 0
4356 397 1 -1.054 -17.363824955099343 -9.144293425460681 -30.32527700554288 0 0 0
4358 397 2 0.527 -17.01408378953456 -9.05511678394149 -29.438737635734817 0 0 0
4149 328 1 -1.054 -20.589241151525094 -8.265558161565464 -30.75590307194437 0 0 1
4151 328 2 0.527 -20.871827714579283 -7.396625494128449 -31.041016523454037 0 0 1
4150 328 2 0.527 -20.302198276987085 -8.700073509275205 -31.559033253335624 0 0 1
1019 1 6 -0.675 -16.685920450479706 -12.14938473578588 -28.391135504727043 0 0 0
62 1 8 0.4 -18.581446859263096 -10.521361713831318 -29.974583564068237 0 0 0
64 1 8 0.4 -19.657300517811397 -7.680895860715083 -29.138270208861552 0 0 0
1011 1 6 -0.675 -18.967350768603247 -11.243680827985473 -29.469273956874922 0 0 0
1026 1 6 -0.675 -19.69532071961326 -7.087385610111111 -28.398997259518012 0 0 0
5746 860 2 0.527 -17.076247997720998 -11.17540199343498 -32.58171567035347 0 0 1
1016 1 5 1.1 -18.18625092899527 -11.426631935714877 -28.00642968309911 0 0 0
5745 860 1 -1.054 -17.85863709147912 -11.693628368417182 -32.3932582807367 0 0 1
4751 528 2 0.527 -20.09074338499495 -10.880030178273724 -32.80768833997768 0 0 0
4749 528 1 -1.054 -20.198990406090193 -9.929078510420323 -32.79518337828408 0 0 0
856 1 5 1.1 -21.22620943547858 -6.636955754511025 -27.813048048460814 0 0 0
4750 528 2 0.527 -19.325688029544903 -9.58564202106717 -32.983883913669594 0 0 0
6481 1105 2 0.527 -21.882065949688005 -6.524584795286286 -32.99493799720351 1 0 1
6480 1105 1 -1.054 -21.201215098380313 -6.187594656150223 -32.41261855528207 1 0 1
6482 1105 2 0.527 -20.605432183410755 -5.710936753169179 -32.990590897259665 1 0 1
4570 468 2 0.527 -14.684815633577486 -13.180488525579488 -33.138168658728475 0 0 0
1030 1 6 -0.675 -12.224198916719176 -12.651831514517745 -29.58757197955631 0 0 0
4478 437 2 0.527 -14.195609665145241 -9.931128398069818 -32.13821296971226 0 0 0
7178 1337 2 0.527 -11.613885785845374 -12.263093657822203 -31.101874539861736 0 0 1
7176 1337 1 -1.054 -11.513641118783278 -12.080442684010055 -32.03611909109365 0 0 1
4476 437 1 -1.054 -14.98775522456899 -9.822375488977295 -31.6120018322786 0 0 0
7177 1337 2 0.527 -12.345861723745434 -12.350738672988362 -32.424146133107875 0 0 1
4569 468 1 -1.054 -14.188909579538894 -12.387615813102919 -33.34218946011909 0 0 0
5171 668 2 0.527 -11.881278276842094 -9.03599185808501 -32.85137662969184 0 1 0
5170 668 2 0.527 -11.420343716806412 -10.300982561549603 -32.159178053998666 0 1 0
5169 668 1 -1.054 -11.200073351148987 -9.376280984766607 -32.27139485963393 0 1 0
4477 437 2 0.527 -14.909008623336213 -10.480028660892026 -30.920990124245407 0 0 0
6326 1053 2 0.527 -13.478049328266078 -8.254768370055752 -30.928558782295177 0 0 0
6324 1053 1 -1.054 -12.921366547506919 -7.542173269983548 -30.614694296810445 0 0 0
6325 1053 2 0.527 -12.580969987960612 -7.134910781595108 -31.41123967782788 0 0 0
1037 1 6 -0.675 -14.348206297054977 -11.056223897140674 -29.21572861458366 0 0 0
4853 562 2 0.527 -10.406339757476703 -10.37909310450113 -28.17921073825265 0 1 1
68 1 8 0.4 -15.267785952098542 -11.192403499412418 -28.92995481465051 0 0 0
1035 1 5 1.1 -13.050068528121768 -11.712113816579883 -28.429198262644494 0 0 0
5385 740 1 -1.054 -11.175452839181647 -6.22672103459983 -27.032824794297547 0 0 0
1038 1 6 -0.675 -12.07053322991707 -10.336479049173274 -28.100114399895336 0 0 0
69 1 8 0.4 -12.400318776221019 -9.542573010226894 -27.66959422973824 0 0 0
5386 740 2 0.527 -12.107713958604004 -6.441831034237074 -27.003961937819945 0 0 0
4867 567 2 0.527 -8.216010940727152 -13.644147132903267 -30.935117074426167 0 0 1
4741 525 2 0.527 -9.844096749486614 -8.910908758703737 -30.880601507847878 0 0 0
4845 560 1 -1.054 -6.554397429870894 -11.076309953817187 -29.723306925006334 0 1 0
5213 682 2 0.527 -5.428270697049442 -12.432940973279855 -26.908016088595616 0 0 1
5211 682 1 -1.054 -4.872983766425197 -11.756640710470464 -27.295928340930484 0 0 1
4847 560 2 0.527 -6.442817831081374 -10.391483539142992 -30.3826749768414 0 1 0
4740 525 1 -1.054 -9.059091406991858 -8.72473055533127 -30.365506396486204 0 0 0
4742 525 2 0.527 -8.333640326168311 -8.868406599851744 -30.973205003876593 0 0 0
4851 562 1 -1.054 -9.45982996602975 -10.237295386959033 -28.16405415819866 0 1 1
4846 560 2 0.527 -5.9711908947111745 -10.819196313815103 -29.009176412754186 0 1 0
4852 562 2 0.527 -9.268706365124643 -9.804154717847577 -28.995965723180227 0 1 1
4039 238 4 -1 -6.799487934566175 -8.996282485309486 -32.47814468345549 0 1 1
7225 1353 2 0.527 -4.375239835985074 -8.682588606145924 -31.702525895535697 0 0 1
7226 1353 2 0.527 -3.3676568347665174 -7.921613330871008 -30.86733954657115 0 0 1
7224 1353 1 -1.054 -3.5633209099156176 -8.794434097230765 -31.208058076562956 0 0 1
70 1 8 0.4 -8.709645817289593 -11.801910072141027 -27.215925350336047 0 0 0
5212 682 2 0.527 -5.196724697350803 -10.93696206305859 -26.92241583023281 0 0 1
7658 1497 2 0.527 -4.803805646600765 -7.019129836570883 -27.855837342082943 0 0 0
3934 133 3 1 -7.651442625470615 -6.3994179507590765 -33.335017800671054 0 0 0
7184 1339 2 0.527 4.2730612184323995 -15.189249716226444 -33.41081176403414 0 0 1
4595 476 2 0.527 -2.7273704807550274 -9.490299216923274 -32.660272190918306 0 0 0
4558 464 2 0.527 -8.335140090097724 7.753416779780167 -33.8190127510279 0 -1 1
4869 568 1 -1.054 -1.2813442237059114 -12.745225485011934 -27.817490898374665 0 0 0
4871 568 2 0.527 -1.9658877332054665 -13.402752818199067 -27.941016453179543 0 0 0
4880 571 2 0.527 -3.1895587775572842 -11.462678642880675 -29.996938944153566 0 0 0
4878 571 1 -1.054 -2.367735584646912 -10.984176515377248 -29.888071512058744 0 0 0
4879 571 2 0.527 -2.5655282868986973 -10.096516990031672 -30.18661347205413 0 0 0
5194 676 2 0.527 -3.231295997329365 -5.568047914805343 -28.76659275226558 0 0 1
5195 676 2 0.527 -2.349454448841904 -6.758402574992816 -29.07838932810374 0 0 1
6161 998 2 0.527 2.0255855340616513 -11.706787931683376 -28.956848063632734 0 0 0
4596 477 1 -1.054 -2.3281412657646143 -6.1490872464021535 -32.336747147563 0 0 0
6141 992 1 -1.054 -0.04329193061820291 -7.568239697540049 -33.10802982552932 0 0 0
6143 992 2 0.527 -0.7396578635064657 -6.911677935861357 -33.122287469092534 0 0 0
6142 992 2 0.527 -0.4541018189585486 -8.345578724817043 -32.72964389286759 0 0 0
5650 828 2 0.527 0.8151870782961552 -10.586117517546645 -30.837252560514294 0 0 0
5649 828 1 -1.054 1.7415471226090986 -10.797228465765714 -30.721039240057898 0 0 0
5651 828 2 0.527 1.9947762766193158 -11.224560013023565 -31.53925617371685 0 0 0
7351 1395 2 0.527 1.6946062736508019 -6.348235033193223 -30.64357890573947 0 0 0
5193 676 1 -1.054 -3.2648429527299285 -6.504861673239024 -28.96008265419157 0 0 1
7352 1395 2 0.527 0.6596500270341679 -7.054911671989869 -31.492884453086077 0 0 0
7350 1395 1 -1.054 1.0240127685843774 -7.030324565264509 -30.608090670603964 0 0 0
5717 850 2 0.527 0.6051026581302423 -7.369392168819351 -27.53457402808759 0 0 0
6134 989 2 0.527 2.586640428311391 -8.245037716114204 -29.63643966738245 0 0 0
5188 674 2 0.527 2.655452413692892 -8.344452078936168 -26.929758453419257 0 0 0
5716 850 2 0.527 0.3724294749399917 -7.07623378188832 -29.001473573392122 0 0 0
4557 464 1 -1.054 -8.873036305497248 8.506714341041462 -33.575277800142054 0 -1 1
5715 850 1 -1.054 -0.08911224784872829 -7.206031006380181 -28.17300850700955 0 0 0
5380 738 2 0.527 -3.202562770309104 8.89945321576808 -32.6777942401811 0 0 0
4875 570 1 -1.054 2.400236608231218 -11.81659882428773 -33.334984192367244 0 0 1
4153 329 2 0.527 13.82783142365994 6.968755426775736 -33.54248888133033 -1 -1 0
4445 426 2 0.527 8.772228578963666 -8.344420199517861 -33.698317264120135 -1 0 1
271 1 8 0.4 7.317634647740931 -12.283174153692421 -27.016356717176883 0 0 0
4737 524 1 -1.054 6.937958731471383 -11.312851443826451 -28.923815762576314 0 0 0
6132 989 1 -1.054 3.280885706643911 -8.420214600377284 -29.00117880845943 0 0 0
6133 989 2 0.527 4.060602653591438 -8.575000841655369 -29.53437947644479 0 0 0
5197 677 2 0.527 6.457925994960863 -8.731906686635938 -29.71832511790687 0 0 0
5196 677 1 -1.054 5.8609548320526486 -9.14589078281206 -30.341588586241766 0 0 0
5198 677 2 0.527 6.145609499554379 -8.82371915909607 -31.19680585372105 0 0 0
4739 524 2 0.527 6.574577925620336 -10.681484536201744 -29.544732452615687 0 0 0
4738 524 2 0.527 7.62523936955715 -10.829857381824246 -28.46493374346243 0 0 0
7311 1382 1 -1.054 7.8584909065148985 -7.2324733627663935 -28.484770062384875 0 0 0
7313 1382 2 0.527 7.846348712494002 -7.029310500201877 -27.549462441271174 0 0 0
4170 335 1 -1.054 5.27874920477425 -6.989774546905357 -33.10547228056667 -1 0 0
4171 335 2 0.527 4.485523795477725 -6.83534513761475 -33.61846946594431 -1 0 0
4443 426 1 -1.054 9.13450185863815 -8.137706750097243 -32.836777928137735 -1 0 1
4771 535 2 0.527 3.1997034374885693 -6.505907674086545 -28.56489687658894 0 0 0
4772 535 2 0.527 3.157051051661071 -5.650556620429576 -27.316538075980603 0 0 0
5237 690 2 0.527 -6.044521188857102 -14.04077259922515 -32.913307084889965 0 0 1
4654 496 2 0.527 -15.048105176624944 -4.062064040565584 -33.64774857577561 0 0 0
4376 403 2 0.527 10.001138359299084 -12.295914358265044 -28.22896977094452 -1 1 0
5461 765 2 0.527 13.274162548121634 -5.981877960683711 -33.02246661244034 -1 0 1
3975 174 3 1 12.629538530398275 -11.680958631132256 -33.25370462649248 -1 1 1
4420 418 2 0.527 14.236294234287929 -11.10779750347156 -30.717713468186844 -1 0 0
4444 426 2 0.527 9.675165598666243 -8.895954844370825 -32.61555577806435 -1 0 1
4016 215 4 -1 10.590768241871803 -10.729725528780232 -31.826262921421126 0 0 0
6222 1019 1 -1.054 14.218995283573324 -8.444048561070533 -30.22652446313799 0 0 0
3865 64 3 1 12.209994396109881 -9.680893334156698 -29.87274878744766 0 0 0
4374 403 1 -1.054 9.655788726603518 -11.609919073006377 -27.657702159698253 -1 1 0
4375 403 2 0.527 10.29882597907277 -10.903261477270497 -27.715464381126175 -1 1 0
6224 1019 2 0.527 14.832282917279368 -7.8434648738211 -29.802987837364036 0 0 0
2612 1 6 -0.9 13.57101572080774 -11.31091665410188 -29.329831941853833 0 0 0
4226 353 2 0.527 11.003460376641964 -8.031221452100471 -28.056757559927043 -1 0 0
4225 353 2 0.527 9.746376059495535 -7.729471200737192 -28.844505646214195 -1 0 0
4224 353 1 -1.054 10.5838699190118 -8.189317140513875 -28.902435954518054 -1 0 0
2604 1 6 -0.675 12.095168349006062 -10.17311177386543 -27.47541117536247 0 0 0
2609 1 5 0.725 13.468896286267519 -11.107290340120375 -27.65112365969509 0 0 0
6659 1164 2 0.527 12.296238868984911 -6.257579749373255 -28.55694436984391 0 0 1
4529 454 2 0.527 0.32138842631571407 -2.864392538682953 -33.80183246209082 0 0 0
6223 1019 2 0.527 14.62705003265049 -8.650151733655884 -31.067496849770166 0 0 0
4419 418 1 -1.054 14.679435490324959 -11.07249577660971 -31.565417962173946 -1 0 0
4184 339 2 0.527 9.371948347337181 -6.54444241188259 -32.81937844498878 -1 0 1
273 1 8 0.4 11.67236668412654 -10.237077968118406 -26.592234844384222 0 0 0
2611 1 7 -0.55 14.738045170266918 -10.220202589218115 -27.026274043108092 0 0 0
6657 1164 1 -1.054 11.84204702977657 -5.683572616797839 -29.17373763218965 0 0 1
4382 405 2 0.527 17.513194907348858 -11.857051012118294 -30.50866465315797 -1 1 0
4380 405 1 -1.054 17.19499452815425 -11.896522114970402 -31.410559626342927 -1 1 0
1269 1 7 -0.55 21.88555572875944 -8.04623464417704 -27.05270078022097 -1 0 0
3908 107 3 1 21.297483408168052 -9.65582280178675 -33.14716187257459 0 0 1
4312 382 2 0.527 21.53266774119817 -9.051939249946576 -30.52142468271429 -1 0 0
2887 1 6 -0.675 15.538266098146298 -6.371141235023531 -29.12236720048584 0 0 0
4311 382 1 -1.054 20.703136824908267 -9.466134213458833 -30.759190294232933 -1 0 0
4313 382 2 0.527 20.611049343993603 -10.191121017238192 -30.141035935056564 -1 0 0
4438 424 2 0.527 17.618018003474713 -9.31719532816337 -30.591876113808834 -1 0 0
4433 422 2 0.527 18.983069138066615 -11.520344450025195 -32.360108364526106 -1 0 0
4421 418 2 0.527 15.601835965937394 -11.225591041571391 -31.360584828278512 -1 0 0
4437 424 1 -1.054 17.80780996814114 -8.722782272441643 -31.31772772715997 -1 0 0
4439 424 2 0.527 18.763616893583542 -8.689569754393164 -31.357081356524734 -1 0 0
302 1 8 0.4 21.126994734135568 -12.29646560923509 -28.879098970254727 0 0 0
303 1 8 0.4 18.45909249732593 -6.067570996827996 -29.67548599974519 0 0 0
2867 1 6 -0.675 20.675658212267027 -11.459961003649436 -28.995026809039267 0 0 0
2872 1 6 -0.675 18.359581898386825 -6.748005160401643 -29.000629119073476 0 0 0
2886 1 6 -0.675 18.162321868305977 -10.549781540519444 -28.910043723958243 0 0 0
307 1 8 0.4 17.470473471459126 -10.035499702380699 -28.509537128889455 0 0 0
2864 1 5 1.1 19.41472720150293 -11.21677370493857 -27.913897980217136 0 0 0
2869 1 5 1.1 16.89676831367284 -6.5440713357386056 -28.062696398249283 0 0 0
4474 436 2 0.527 16.60795714963322 -8.819697606414396 -33.04868225311619 -1 0 0
4473 436 1 -1.054 15.749251673437588 -8.68255927720078 -33.44872825480997 -1 0 0
6704 1179 2 0.527 7.1787336150696035 -8.601553151450851 -0.24226192443833838 0 0 0
4431 422 1 -1.054 19.562259435768294 -11.263254360684712 -33.07750815700101 -1 0 0
304 1 8 0.4 20.78407480942037 -6.534312232556516 -29.150863759898435 0 0 0
7879 1571 2 0.527 17.431907852042524 -6.739675216677739 -31.971112817062636 0 0 0
4406 413 2 0.527 -17.45506463556825 -6.310104696287764 -33.149849603729486 0 0 0
4404 413 1 -1.054 -16.99084646976043 -5.869784980741002 -32.43792673295588 0 0 0
4840 558 2 0.527 -19.221082312379703 -3.9310800985741476 -30.92239958585893 0 0 0
4497 444 1 -1.054 -21.100413211429615 -3.913774684621261 -30.31819176652711 0 0 1
4839 558 1 -1.054 -18.387804875542763 -3.6866223208229556 -31.325024615987427 0 0 0
4498 444 2 0.527 -21.46929180951023 -4.7970073818582275 -30.32229621036336 0 0 1
4841 558 2 0.527 -17.87509884576508 -3.3135873053162967 -30.607950694375315 0 0 0
4807 547 2 0.527 -19.18265951458683 -1.2060876451396787 -32.00442677738685 0 0 0
66 1 8 0.4 -20.881837135104472 -1.5433106727477366 -28.510574749264322 0 0 0
73 1 8 0.4 -16.652166439633625 -1.781706518620208 -28.97323850903109 0 0 0
1032 1 6 -0.675 -20.00500136442145 -1.245472538424874 -28.659774746085088 0 0 0
1044 1 5 1.1 -18.57311695461276 -1.7702622951102533 -27.88225672670445 0 0 0
1047 1 6 -0.675 -17.466897882158335 -2.2931456978305214 -29.082649591563463 0 0 0
4806 547 1 -1.054 -19.30689023378065 -0.2792364697741796 -31.800223498689444 0 0 0
4844 559 2 0.527 -17.482758940947356 -2.43104626762695 -33.490865396468145 0 0 0
1042 1 6 -0.675 -15.945085077415271 -5.651037859438146 -28.725423609871406 0 0 0
71 1 8 0.4 -16.74616051198253 -5.118867688924636 -28.71219680120697 0 0 0
4808 547 2 0.527 -18.455189625039292 0.010781829605921445 -31.473556621136495 0 0 0
4405 413 2 0.527 -17.666104844213738 -5.360108344367507 -31.99019293828007 0 0 0
1046 1 7 -0.55 -17.857753620054822 -0.3574369399890145 -27.074929867405267 0 0 0
2846 1 7 -0.55 17.110588304371415 15.72371075474203 -0.7890528765985323 0 0 0
4780 538 2 0.527 -9.775876656454798 -4.879901693184555 -32.2837225581259 0 0 0
4426 420 2 0.527 -15.501510619748897 -1.74928310722402 -31.434888571908253 0 0 1
4601 478 2 0.527 -15.427322505654043 -5.350868356253621 -32.124490411659586 0 0 0
4408 414 2 0.527 -11.014846250657797 -3.1077193692146636 -33.25339404307061 0 0 0
4407 414 1 -1.054 -10.96651723584119 -3.4554917074668676 -32.36292322999386 0 0 0
4409 414 2 0.527 -10.850513455549828 -2.683119039876413 -31.809586819625896 0 0 0
4599 478 1 -1.054 -14.601203399881225 -4.9435604653328 -31.864030628017854 0 0 0
4600 478 2 0.527 -14.855470867930354 -4.093466941514675 -31.505031435615983 0 0 0
4427 420 2 0.527 -13.988580702362881 -1.7521480736186312 -31.488699995570947 0 0 1
4466 433 2 0.527 -14.22568024260244 -2.1310956031608903 -29.024141341939032 0 0 1
4602 479 1 -1.054 -13.074436197522036 -3.6885506967104185 -28.99930393290175 0 0 1
4603 479 2 0.527 -12.159968490260933 -3.411031334361761 -28.94502102920458 0 0 1
4425 420 1 -1.054 -14.737738613545492 -2.287756162187126 -31.227750991092275 0 0 1
4604 479 2 0.527 -13.405849411381789 -3.5990042039635792 -28.105788393124403 0 0 1
4465 433 2 0.527 -14.543922642602768 -1.905878636923294 -27.56131073815607 0 0 1
5912 915 2 0.527 -11.972909047177092 -0.9773325759659492 -30.498588433762954 0 0 1
4021 220 4 -1 -10.505281330354393 -2.1590130722751155 -29.482633911612417 0 0 0
4464 433 1 -1.054 -14.688197545702089 -1.5372720647011597 -28.43282200736003 0 0 1
4448 427 2 0.527 -11.777760508471204 -0.3730700446581636 -28.40103063212016 0 0 0
3823 22 3 1 -13.925068194214086 -5.795779490495754 -29.56511219539446 0 0 0
4828 554 2 0.527 -9.957755152729627 -6.219717888677648 -28.438277794920495 0 0 0