ITEM: TIMESTEP
0
ITEM: NUMBER OF ATOMS
18
ITEM: BOX BOUNDS pp pp pp
-1.0498272856282737e+01 1.0498272856282737e+01
-1.0498272856282737e+01 1.0498272856282737e+01
-1.0498272856282737e+01 1.0498272856282737e+01
ITEM: ATOMS id type xs ys zs
659 2 0.437801 0.602753 0.612717
658 1 0.466586 0.593921 0.646947
660 2 0.472241 0.5487 0.645746
82 1 0.491635 0.661074 0.485103
823 1 0.613176 0.500392 0.366108
448 1 0.496699 0.542477 0.414906
450 2 0.504175 0.580542 0.438853
449 2 0.47611 0.556784 0.376831
824 2 0.575864 0.520345 0.383079
48 2 0.458496 0.427948 0.648752
47 2 0.505407 0.44768 0.597676
46 1 0.494859 0.454472 0.641504
825 2 0.630218 0.476482 0.400982
753 2 0.488833 0.480731 0.469062
752 2 0.435575 0.43624 0.488632
751 1 0.478624 0.447497 0.498551
84 2 0.526201 0.671915 0.512779
83 2 0.502953 0.679446 0.444944
ITEM: TIMESTEP
500
ITEM: NUMBER OF ATOMS
18
ITEM: BOX BOUNDS pp pp pp
-1.0498272856282737e+01 1.0498272856282737e+01
-1.0498272856282737e+01 1.0498272856282737e+01
-1.0498272856282737e+01 1.0498272856282737e+01
ITEM: ATOMS id type xs ys zs
659 2 0.4329 0.494048 0.615328
658 1 0.414291 0.479678 0.57627
660 2 0.43439 0.439582 0.568106
82 1 0.425234 0.582881 0.477347
823 1 0.602411 0.48531 0.407138
448 1 0.529045 0.591908 0.36138
450 2 0.48704 0.585303 0.37782
449 2 0.531316 0.636754 0.353504
824 2 0.585824 0.527633 0.410597
48 2 0.518345 0.552347 0.703264
47 2 0.519763 0.539059 0.632411
46 1 0.491444 0.549543 0.666565
825 2 0.623464 0.484554 0.366708
753 2 0.56806 0.488019 0.520356
752 2 0.602204 0.54397 0.550396
751 1 0.572471 0.510679 0.559667
84 2 0.41698 0.619797 0.502792
83 2 0.421032 0.547892 0.50627
ITEM: TIMESTEP
1000
ITEM: NUMBER OF ATOMS
18
ITEM: BOX BOUNDS pp pp pp
-1.0498272856282737e+01 1.0498272856282737e+01
-1.0498272856282737e+01 1.0498272856282737e+01
-1.0498272856282737e+01 1.0498272856282737e+01
ITEM: ATOMS id type xs ys zs
659 2 0.471428 0.534522 0.627458
658 1 0.432603 0.555977 0.616941
660 2 0.400948 0.535574 0.642632
82 1 0.407864 0.581517 0.492943
823 1 0.613449 0.497465 0.411355
448 1 0.527473 0.586005 0.370452
450 2 0.490584 0.586595 0.397232
449 2 0.553594 0.619873 0.386229
824 2 0.627649 0.483844 0.370231
48 2 0.57009 0.496295 0.652021
47 2 0.531629 0.468229 0.597875
46 1 0.53141 0.473871 0.643112
825 2 0.577518 0.524178 0.402771
753 2 0.547408 0.491859 0.476592
752 2 0.487144 0.521581 0.502739
751 1 0.528705 0.507509 0.515109
84 2 0.416043 0.576053 0.537458
83 2 0.362413 0.583132 0.489786
ITEM: TIMESTEP
1500
ITEM: NUMBER OF ATOMS
18
ITEM: BOX BOUNDS pp pp pp
-1.0498272856282737e+01 1.0498272856282737e+01
-1.0498272856282737e+01 1.0498272856282737e+01
-1.0498272856282737e+01 1.0498272856282737e+01
ITEM: ATOMS id type xs ys zs
659 2 0.458862 0.537066 0.6516
658 1 0.416138 0.551096 0.644113
660 2 0.390047 0.517217 0.659918
82 1 0.387124 0.610344 0.523864
823 1 0.616889 0.487885 0.351328
448 1 0.486857 0.566681 0.430128
450 2 0.4715 0.599412 0.457898
449 2 0.449453 0.550633 0.409594
824 2 0.624749 0.532768 0.34992
48 2 0.57024 0.453074 0.644727
47 2 0.558192 0.487111 0.582317
46 1 0.541871 0.48257 0.624641
825 2 0.597004 0.478504 0.311392
753 2 0.604749 0.482548 0.439191
752 2 0.557128 0.530688 0.46396
751 1 0.592897 0.505489 0.476762
84 2 0.401125 0.592334 0.563335
83 2 0.349077 0.633079 0.534533
ITEM: TIMESTEP
2000
ITEM: NUMBER OF ATOMS
18
ITEM: BOX BOUNDS pp pp pp
-1.0498272856282737e+01 1.0498272856282737e+01
-1.0498272856282737e+01 1.0498272856282737e+01
-1.0498272856282737e+01 1.0498272856282737e+01
ITEM: ATOMS id type xs ys zs
659 2 0.423556 0.478919 0.593641
658 1 0.378798 0.484659 0.58716
660 2 0.359884 0.472852 0.626924
82 1 0.381906 0.458222 0.457912
823 1 0.79521 0.610693 0.478149
448 1 0.42985 0.581317 0.447916
450 2 0.426333 0.536073 0.443566
449 2 0.388295 0.594813 0.460928
824 2 0.797595 0.610811 0.432623
48 2 0.516789 0.531934 0.616811
47 2 0.523983 0.508075 0.549153
46 1 0.50688 0.496562 0.589813
825 2 0.767566 0.575822 0.488055
753 2 0.568944 0.610669 0.471227
752 2 0.506904 0.574469 0.4775
751 1 0.551319 0.57188 0.487446
84 2 0.376791 0.467703 0.502209
83 2 0.340768 0.443901 0.444463
ITEM: TIMESTEP
2500
ITEM: NUMBER OF ATOMS
18
ITEM: BOX BOUNDS pp pp pp
-1.0498272856282737e+01 1.0498272856282737e+01
-1.0498272856282737e+01 1.0498272856282737e+01
-1.0498272856282737e+01 1.0498272856282737e+01
ITEM: ATOMS id type xs ys zs
659 2 0.412143 0.442124 0.544847
658 1 0.422202 0.41056 0.513529
660 2 0.421445 0.371126 0.536392
82 1 0.406294 0.461151 0.391708
448 1 0.453973 0.576592 0.446616
450 2 0.436304 0.537868 0.430289
449 2 0.436962 0.609178 0.419652
48 2 0.38654 0.508157 0.635614
47 2 0.440381 0.535955 0.596534
46 1 0.413128 0.499538 0.599598
753 2 0.478973 0.654746 0.559577
752 2 0.483166 0.592278 0.523815
751 1 0.490821 0.611019 0.564662
84 2 0.423698 0.452425 0.43293
83 2 0.38702 0.421875 0.378891
823 1 0.858701 0.645746 0.531966
824 2 0.815 0.656218 0.53964
825 2 0.857431 0.603888 0.513948
ITEM: TIMESTEP
3000
ITEM: NUMBER OF ATOMS
18
ITEM: BOX BOUNDS pp pp pp
-1.0498272856282737e+01 1.0498272856282737e+01
-1.0498272856282737e+01 1.0498272856282737e+01
-1.0498272856282737e+01 1.0498272856282737e+01
ITEM: ATOMS id type xs ys zs
659 2 0.394632 0.361094 0.474468
658 1 0.423428 0.396107 0.479283
660 2 0.403444 0.423195 0.510029
82 1 0.531843 0.460004 0.417516
448 1 0.462064 0.586286 0.465885
450 2 0.485807 0.550433 0.450747
449 2 0.443681 0.604494 0.42835
48 2 0.375653 0.486264 0.619941
47 2 0.349362 0.521137 0.56257
46 1 0.349841 0.480305 0.582839
753 2 0.346096 0.642138 0.539852
752 2 0.398137 0.594574 0.524746
751 1 0.362118 0.601192 0.551896
84 2 0.495187 0.440123 0.43594
83 2 0.567086 0.43558 0.432998
823 1 0.909997 0.679545 0.555401
824 2 0.900448 0.638405 0.538235
825 2 0.912051 0.706921 0.519005
ITEM: TIMESTEP
3500
ITEM: NUMBER OF ATOMS
18
ITEM: BOX BOUNDS pp pp pp
-1.0498272856282737e+01 1.0498272856282737e+01
-1.0498272856282737e+01 1.0498272856282737e+01
-1.0498272856282737e+01 1.0498272856282737e+01
ITEM: ATOMS id type xs ys zs
48 2 0.242757 0.44812 0.512572
659 2 0.404354 0.351861 0.5415
658 1 0.413784 0.394454 0.528261
660 2 0.375239 0.4092 0.508891
82 1 0.511789 0.489674 0.507764
448 1 0.473217 0.598367 0.559318
450 2 0.489628 0.560926 0.539139
449 2 0.481211 0.591855 0.603725
47 2 0.30004 0.476331 0.47908
46 1 0.285231 0.438239 0.499279
753 2 0.388226 0.551677 0.417955
752 2 0.380007 0.567566 0.487803
751 1 0.363474 0.540935 0.454701
84 2 0.47653 0.465946 0.524259
83 2 0.516868 0.474428 0.465101
824 2 0.996638 0.715693 0.466687
823 1 0.991002 0.743694 0.502221
825 2 0.0326758 0.760245 0.51045
ITEM: TIMESTEP
4000
ITEM: NUMBER OF ATOMS
18
ITEM: BOX BOUNDS pp pp pp
-1.0498272856282737e+01 1.0498272856282737e+01
-1.0498272856282737e+01 1.0498272856282737e+01
-1.0498272856282737e+01 1.0498272856282737e+01
ITEM: ATOMS id type xs ys zs
48 2 0.436542 0.46091 0.362072
659 2 0.354827 0.367405 0.513454
658 1 0.372788 0.408903 0.519254
660 2 0.389721 0.419845 0.478365
82 1 0.429481 0.453276 0.624229
448 1 0.361478 0.572159 0.594586
450 2 0.384206 0.534423 0.606325
449 2 0.324408 0.571894 0.62112
47 2 0.408261 0.498858 0.416468
46 1 0.409855 0.456858 0.398811
753 2 0.378906 0.578081 0.502691
752 2 0.38076 0.611727 0.438946
751 1 0.395024 0.574025 0.46024
84 2 0.412672 0.431184 0.588067
83 2 0.468685 0.431918 0.633463
824 2 0.0617309 0.709785 0.422674
823 1 0.0680205 0.741253 0.455055
825 2 0.112808 0.740175 0.463494
ITEM: TIMESTEP
4500
ITEM: NUMBER OF ATOMS
18
ITEM: BOX BOUNDS pp pp pp
-1.0498272856282737e+01 1.0498272856282737e+01
-1.0498272856282737e+01 1.0498272856282737e+01
-1.0498272856282737e+01 1.0498272856282737e+01
ITEM: ATOMS id type xs ys zs
449 2 0.297758 0.550123 0.475369
48 2 0.5493 0.523104 0.543024
659 2 0.50016 0.423516 0.397413
658 1 0.474092 0.420445 0.434687
660 2 0.491598 0.451186 0.463442
82 1 0.362473 0.421747 0.515881
448 1 0.326055 0.542083 0.510197
450 2 0.335691 0.497634 0.507068
47 2 0.484897 0.55416 0.533722
46 1 0.509526 0.517837 0.521377
753 2 0.394723 0.588033 0.538559
752 2 0.427679 0.6377 0.497989
751 1 0.432381 0.613638 0.536424
84 2 0.391442 0.414544 0.481424
83 2 0.38103 0.399709 0.551212
824 2 0.954138 0.650496 0.524281
823 1 0.93176 0.689601 0.531234
825 2 0.910824 0.683819 0.571315
ITEM: TIMESTEP
5000
ITEM: NUMBER OF ATOMS
18
ITEM: BOX BOUNDS pp pp pp
-1.0498272856282737e+01 1.0498272856282737e+01
-1.0498272856282737e+01 1.0498272856282737e+01
-1.0498272856282737e+01 1.0498272856282737e+01
ITEM: ATOMS id type xs ys zs
449 2 0.314643 0.521621 0.412482
48 2 0.499928 0.561954 0.51126
659 2 0.535314 0.399344 0.486263
658 1 0.54252 0.441902 0.471594
660 2 0.538371 0.46772 0.508937
82 1 0.479097 0.539408 0.406108
448 1 0.343864 0.523716 0.447411
450 2 0.384936 0.518717 0.428269
47 2 0.465077 0.538233 0.569753
46 1 0.506695 0.541495 0.551434
753 2 0.35627 0.527866 0.541802
752 2 0.374294 0.470001 0.580859
751 1 0.3789 0.515331 0.579339
84 2 0.500527 0.501718 0.4202
83 2 0.496184 0.547434 0.364612
824 2 0.775987 0.667181 0.633226
823 1 0.79076 0.642319 0.597985
825 2 0.789646 0.670954 0.56253
