LAMMPS 2005 data file for a_cristobalite_20m2_`

     36 atoms
     48 bonds
     96 angles
    144 dihedrals
     48 impropers

   2 atom types
   1 bond types
   2 angle types
   1 dihedral types
   1 improper types

     0.000000000     8.545000000 xlo xhi
     0.000000000     4.978000000 ylo yhi
     0.000000000    12.143000000 zlo zhi

Masses

   1  15.999400
   2  28.086000

Pair Coeffs

   1   0.0400000000   3.6000000000 
   2   0.0800000000   4.2000000000 

Bond Coeffs

  1     1.6800   285.0000     0.0000     0.0000 

Angle Coeffs

  1   149.0000   100.0000     0.0000     0.0000 
  2   109.5000   100.0000     0.0000     0.0000

Atoms

      1      0   1 -0.550000     3.267037928     0.513928720    11.036117208
      2      0   1 -0.550000     9.063246866     0.513928720     2.942951221
      3      0   1 -0.550000     6.166258781     0.513928720     6.989513392
      4      0   1 -0.550000     1.952018440     4.464071280     6.906659768
      5      0   1 -0.550000     7.600030355     4.464071280    10.953221939
      6      0   1 -0.550000     4.851239293     4.464071280     2.860055952
      7      0   1 -0.550000     5.134218580     3.682525280    11.412440952
      8      0   1 -0.550000     2.385427519     3.682525280     3.319274964
      9      0   1 -0.550000     8.033439434     3.682525280     7.365837136
     10      0   1 -0.550000     2.908843745     1.295474720     8.553617110
     11      0   1 -0.550000     8.705052683     1.295474720     0.460451123
     12      0   1 -0.550000     5.808064598     1.295474720     4.507013294
     13      0   1 -0.550000     2.722754457     3.002928720    10.520746197
     14      0   1 -0.550000    -0.026036605     3.002928720     2.427580210
     15      0   1 -0.550000     5.621975311     3.002928720     6.474142381
     16      0   1 -0.550000     1.288982883     1.975071280     6.557037650
     17      0   1 -0.550000     6.936994798     1.975071280    10.603599821
     18      0   1 -0.550000     4.188203736     1.975071280     2.510433834
     19      0   1 -0.550000     6.654015511     1.193525280     2.051214821
     20      0   1 -0.550000     0.855573805     1.193525280    10.144422453
     21      0   1 -0.550000     3.754794658     1.193525280     6.097818637
     22      0   1 -0.550000     0.332157578     3.784474720     4.910080308
     23      0   1 -0.550000     5.980169494     3.784474720     8.956642479
     24      0   1 -0.550000     3.231378432     3.784474720     0.863476492
     25      0   2  1.100000     8.232413421     1.493599120     1.976911744
     26      0   2  1.100000     2.433971715     1.493599120    10.070119376
     27      0   2  1.100000     5.333192568     1.493599120     6.023515560
     28      0   2  1.100000     0.769422161     3.484400880     6.428520492
     29      0   2  1.100000     6.417434076     3.484400880    10.475082664
     30      0   2  1.100000     3.668643014     3.484400880     2.381916676
     31      0   2  1.100000     3.555820670     3.982599120    11.486744029
     32      0   2  1.100000     0.807029608     3.982599120     3.393578042
     33      0   2  1.100000     6.455041524     3.982599120     7.440140213
     34      0   2  1.100000     2.471579162     0.995400880     7.035176925
     35      0   2  1.100000     8.119591078     0.995400880    11.081739097
     36      0   2  1.100000     5.370800016     0.995400880     2.988573109

Bonds

     1   1      1     26
     2   1      1     31
     3   1      2     25
     4   1      2     32
     5   1      3     27
     6   1      3     33
     7   1      4     28
     8   1      4     34
     9   1      5     29
    10   1      5     35
    11   1      6     30
    12   1      6     36
    13   1      7     29
    14   1      7     31
    15   1      8     30
    16   1      8     32
    17   1      9     33
    18   1      9     28
    19   1     10     26
    20   1     10     34
    21   1     11     25
    22   1     11     35
    23   1     12     27
    24   1     12     36
    25   1     13     26
    26   1     13     31
    27   1     14     32
    28   1     14     25
    29   1     15     27
    30   1     15     33
    31   1     16     28
    32   1     16     34
    33   1     17     29
    34   1     17     35
    35   1     18     30
    36   1     18     36
    37   1     19     25
    38   1     19     36
    39   1     20     26
    40   1     20     35
    41   1     21     27
    42   1     21     34
    43   1     22     28
    44   1     22     32
    45   1     23     29
    46   1     23     33
    47   1     24     30
    48   1     24     31

Angles

     1   1     26      1     31
     2   1     25      2     32
     3   1     27      3     33
     4   1     28      4     34
     5   1     29      5     35
     6   1     30      6     36
     7   1     29      7     31
     8   1     30      8     32
     9   1     33      9     28
    10   1     26     10     34
    11   1     25     11     35
    12   1     27     12     36
    13   1     26     13     31
    14   1     32     14     25
    15   1     27     15     33
    16   1     28     16     34
    17   1     29     17     35
    18   1     30     18     36
    19   1     25     19     36
    20   1     26     20     35
    21   1     27     21     34
    22   1     28     22     32
    23   1     29     23     33
    24   1     30     24     31
    25   2      2     25     11
    26   2      2     25     19
    27   2      2     25     14
    28   2     11     25     19
    29   2     11     25     14
    30   2     19     25     14
    31   2      1     26     10
    32   2      1     26     13
    33   2      1     26     20
    34   2     10     26     13
    35   2     10     26     20
    36   2     13     26     20
    37   2      3     27     12
    38   2      3     27     15
    39   2      3     27     21
    40   2     12     27     15
    41   2     12     27     21
    42   2     15     27     21
    43   2      4     28     16
    44   2      4     28     22
    45   2      4     28      9
    46   2     16     28     22
    47   2     16     28      9
    48   2     22     28      9
    49   2      5     29      7
    50   2      5     29     17
    51   2      5     29     23
    52   2      7     29     17
    53   2      7     29     23
    54   2     17     29     23
    55   2      6     30      8
    56   2      6     30     18
    57   2      6     30     24
    58   2      8     30     18
    59   2      8     30     24
    60   2     18     30     24
    61   2      7     31     13
    62   2      7     31      1
    63   2      7     31     24
    64   2     13     31      1
    65   2     13     31     24
    66   2      1     31     24
    67   2      8     32     14
    68   2      8     32     22
    69   2      8     32      2
    70   2     14     32     22
    71   2     14     32      2
    72   2     22     32      2
    73   2      9     33     15
    74   2      9     33     23
    75   2      9     33      3
    76   2     15     33     23
    77   2     15     33      3
    78   2     23     33      3
    79   2     10     34     16
    80   2     10     34     21
    81   2     10     34      4
    82   2     16     34     21
    83   2     16     34      4
    84   2     21     34      4
    85   2     17     35      5
    86   2     17     35     11
    87   2     17     35     20
    88   2      5     35     11
    89   2      5     35     20
    90   2     11     35     20
    91   2     12     36     18
    92   2     12     36     19
    93   2     12     36      6
    94   2     18     36     19
    95   2     18     36      6
    96   2     19     36      6

