LAMMPS 2005 data file for a_cristobalite_unit_ 

     12 atoms
     16 bonds
     32 angles
     48 dihedrals
     16 impropers

   2 atom types
   1 bond types
   2 angle types
   1 dihedral types
   1 improper types

     0.000000000     4.978000000 xlo xhi
     0.000000000     4.978000000 ylo yhi
     0.000000000     6.948000000 zlo zhi

Masses

   1  15.999400
   2  28.086000

Pair Coeffs

   1   0.0400000000   3.6000000000 
   2   0.0800000000   4.2000000000 

Bond Coeffs

  1     1.6800   285.0000     0.0000     0.0000 

Angle Coeffs

  1   149.0000   100.0000     0.0000     0.0000 
  2   109.5000   100.0000     0.0000     0.0000 

Atoms

      1      0   1 -0.550000     1.193525280     0.513928720     1.239801120
      2      0   2  1.100000     1.493599120     1.493599120     0.000000000
      3      0   1 -0.550000     3.784474720     4.464071280     4.713801120
      4      0   1 -0.550000     4.464071280     3.784474720     2.234198880
      5      0   2  1.100000     3.484400880     3.484400880     3.474000000
      6      0   1 -0.550000     1.975071280     3.682525280     2.976801120
      7      0   1 -0.550000     1.295474720     3.002928720     0.497198880
      8      0   2  1.100000     0.995400880     3.982599120     1.737000000
      9      0   1 -0.550000     3.002928720     1.295474720     6.450801120
     10      0   1 -0.550000     3.682525280     1.975071280     3.971198880
     11      0   2  1.100000     3.982599120     0.995400880     5.211000000
     12      0   1 -0.550000     5.491928720     1.193525280     5.708198880

Bonds

     1   1      1      2
     2   1      1      8
     3   1      7      2
     4   1      9      2
     5   1     12      2
     6   1      3      5
     7   1      3     11
     8   1      4      5
     9   1      4      8
    10   1      6      5
    11   1     10      5
    12   1      6      8
    13   1      7      8
    14   1      9     11
    15   1     10     11
    16   1     12     11

Angles

     1   1      2      1      8
     2   2      1      2      7
     3   2      1      2      9
     4   2      1      2     12
     5   2      7      2      9
     6   2      7      2     12
     7   2      9      2     12
     8   1      5      3     11
     9   1      5      4      8
    10   2      3      5      4
    11   2      3      5      6
    12   2      3      5     10
    13   2      4      5      6
    14   2      4      5     10
    15   2      6      5     10
    16   1      5      6      8
    17   1      2      7      8
    18   2      6      8      7
    19   2      6      8      1
    20   2      6      8      4
    21   2      7      8      1
    22   2      7      8      4
    23   2      1      8      4
    24   1     11      9      2
    25   1      5     10     11
    26   2      9     11     10
    27   2      9     11     12
    28   2      9     11      3
    29   2     10     11     12
    30   2     10     11      3
    31   2     12     11      3
    32   1     11     12      2
    
