LAMMPS 2005 data file for a_quartz_001_rectang0

     18 atoms
     24 bonds
     48 angles
     72 dihedrals
     24 impropers

   2 atom types
   1 bond types
   2 angle types
   1 dihedral types
   1 improper types

     0.000000000     4.913000000 xlo xhi
     0.000000000     8.509600000 ylo yhi
     0.000000000     5.405200000 zlo zhi

Masses

   1  15.999400
   2  28.086000

Pair Coeffs

   1   0.0400000000   3.6000000000 
   2   0.0800000000   4.2000000000 

Bond Coeffs

  1     1.6800   285.0000     0.0000     0.0000 

Angle Coeffs

  1   149.0000   100.0000     0.0000     0.0000 
  2   109.5000   100.0000     0.0000     0.0000 

Atoms

      1      0   1 -0.550000     1.374657400     1.138579880     1.157253320
      2      0   1 -0.550000     3.239632200     0.621198290     2.958986653
      3      0   1 -0.550000     2.755210400     2.495004639     4.760719987
      4      0   1 -0.550000     0.298710400     1.759778170     4.247946680
      5      0   1 -0.550000     3.831157400     3.116202929     2.446213347
      6      0   1 -0.550000     0.783132200     3.633584519     0.644480013
      7      0   2  1.100000     2.309601300     0.000000000     1.801733333
      8      0   2  1.100000     3.758199350     2.000173398     3.603466667
      9      0   2  1.100000     1.301699350     2.254609410    -0.000000000
     10      0   1 -0.550000     3.831157400     5.393362689     1.157253320
     11      0   1 -0.550000     0.783132200     4.875981099     2.958986653
     12      0   1 -0.550000     0.298710400     6.749787448     4.760719987
     13      0   1 -0.550000     2.755210400     6.014560979     4.247946680
     14      0   1 -0.550000     1.374657400     7.370985738     2.446213347
     15      0   1 -0.550000     3.239632200     7.888367328     0.644480013
     16      0   2  1.100000     4.766101300     4.254782809     1.801733333
     17      0   2  1.100000     1.301699350     6.254956207     3.603466667
     18      0   2  1.100000     3.758199350     6.509392219    -0.000000000

Bonds

     1   1      1      7
     2   1      1      9
     3   1      2      7
     4   1      2      8
     5   1      3      8
     6   1      3      9
     7   1      4      8
     8   1      4      9
     9   1      5      8
    10   1      5     16
    11   1      6      9
    12   1      6     16
    13   1     14      7
    14   1     15      7
    15   1     10     16
    16   1     10     18
    17   1     11     17
    18   1     11     16
    19   1     12     17
    20   1     12     18
    21   1     13     17
    22   1     13     18
    23   1     14     17
    24   1     15     18

Angles

     1   1      7      1      9
     2   1      7      2      8
     3   1      8      3      9
     4   1      8      4      9
     5   1      8      5     16
     6   1      9      6     16
     7   2      1      7      2
     8   2      1      7     14
     9   2      1      7     15
    10   2      2      7     14
    11   2      2      7     15
    12   2     14      7     15
    13   2      2      8      3
    14   2      2      8      5
    15   2      2      8      4
    16   2      3      8      5
    17   2      3      8      4
    18   2      5      8      4
    19   2      1      9      6
    20   2      1      9      3
    21   2      1      9      4
    22   2      6      9      3
    23   2      6      9      4
    24   2      3      9      4
    25   1     16     10     18
    26   1     17     11     16
    27   1     17     12     18
    28   1     17     13     18
    29   1     17     14      7
    30   1     18     15      7
    31   2      5     16     10
    32   2      5     16      6
    33   2      5     16     11
    34   2     10     16      6
    35   2     10     16     11
    36   2      6     16     11
    37   2     11     17     12
    38   2     11     17     13
    39   2     11     17     14
    40   2     12     17     13
    41   2     12     17     14
    42   2     13     17     14
    43   2     10     18     15
    44   2     10     18     12
    45   2     10     18     13
    46   2     15     18     12
    47   2     15     18     13
    48   2     12     18     13

