LAMMPS 2005 data file for quartz_unit_cell

      9 atoms
     12 bonds
     24 angles
     36 dihedrals
     12 impropers

   2 atom types
   1 bond types
   2 angle types
   1 dihedral types
   1 improper types

     0.000000000     4.913000000 xlo xhi
     0.000000000     4.254782809 ylo yhi
     0.000000000     5.405200000 zlo zhi
    -2.456500000     0.000000000     0.000000000 xy xz yz

Masses

   1  15.999400
   2  28.086000

Pair Coeffs

   1   0.0400000000   3.6000000000 
   2   0.0800000000   4.2000000000 

Bond Coeffs

  1     1.6800   285.0000     0.0000     0.0000 

Angle Coeffs

  1   149.0000   100.0000     0.0000     0.0000 
  2   109.5000   100.0000     0.0000     0.0000 

Atoms

      1      0   1 -0.550000     1.374657400     1.138579880     1.157253320
      2      0   1 -0.550000     3.239632200     0.621198290     2.958986653
      3      0   1 -0.550000     2.755210400     2.495004639     4.760719987
      4      0   1 -0.550000     0.298710400     1.759778170     4.247946680
      5      0   1 -0.550000    -1.081842600     3.116202929     2.446213347
      6      0   1 -0.550000     0.783132200     3.633584519     0.644480013
      7      0   2  1.100000     2.309601300     0.000000000     1.801733333
      8      0   2  1.100000    -1.154800650     2.000173398     3.603466667
      9      0   2  1.100000     1.301699350     2.254609410    -0.000000000

Bonds

     1   1      1      7
     2   1      1      9
     3   1      2      7
     4   1      2      8
     5   1      3      9
     6   1      3      8
     7   1      4      8
     8   1      4      9
     9   1      5      8
    10   1      5      7
    11   1      6      9
    12   1      6      7

Angles

     1   1      7      1      9
     2   1      7      2      8
     3   1      9      3      8
     4   1      8      4      9
     5   1      8      5      7
     6   1      9      6      7
     7   2      1      7      2
     8   2      1      7      5
     9   2      1      7      6
    10   2      2      7      5
    11   2      2      7      6
    12   2      5      7      6
    13   2      4      8      5
    14   2      4      8      2
    15   2      4      8      3
    16   2      5      8      2
    17   2      5      8      3
    18   2      2      8      3
    19   2      1      9      6
    20   2      1      9      3
    21   2      1      9      4
    22   2      6      9      3
    23   2      6      9      4
    24   2      3      9      4

