LAMMPS 2005 data file for silica_Q4

   2016 atoms
   2688 bonds
   5376 angles
   8064 dihedrals
   2688 impropers

   2 atom types
   1 bond types
   2 angle types
   1 dihedral types
   1 improper types

     0.000000000    33.367500000 xlo xhi
     0.000000000    34.842000000 ylo yhi
     0.000000000    66.858400000 zlo zhi

Masses

   1  15.999400
   2  28.086000

Pair Coeffs

   1   0.0400000000   3.6000000000 
   2   0.0800000000   4.2000000000 

Bond Coeffs

  1     1.6800   285.0000     0.0000     0.0000 

Angle Coeffs

  1   149.0000   100.0000     0.0000     0.0000 
  2   109.5000   100.0000     0.0000     0.0000  

Atoms

      1      0   1 -0.550000     3.313132295     0.105582363    11.445985680
      2      0   1 -0.550000     9.103746526     0.495843556     3.892693440
      3      0   1 -0.550000     6.505206236    -0.648874973     6.901082923
      4      0   1 -0.550000     2.024782259     3.884345171     7.781964073
      5      0   1 -0.550000     7.742109256     3.907208520    10.748840293
      6      0   1 -0.550000     4.374935096     4.171625692     2.154661909
      7      0   1 -0.550000     5.317093329     3.387752672    11.562758111
      8      0   1 -0.550000     2.555909224     3.499767220     3.892302889
      9      0   1 -0.550000     8.099841345     2.484253289     7.730988108
     10      0   1 -0.550000     3.319245325     0.779973010     8.888411617
     11      0   1 -0.550000     5.774123064     0.004597702     4.422742326
     12      0   1 -0.550000     3.018030345     2.616012290    10.672959942
     13      0   1 -0.550000     5.816588630     1.842410423     6.501076775
     14      0   1 -0.550000     1.935810877     1.408462477     6.762601390
     15      0   1 -0.550000     6.920558145     1.417238209    10.915345301
     16      0   1 -0.550000     4.388738053     1.703012444     3.171855913
     17      0   1 -0.550000     7.026569281     0.985431348     2.202848563
     18      0   1 -0.550000     1.095518732     0.896024187    10.264335603
     19      0   1 -0.550000     4.060545782    -0.093227709     6.478363841
     20      0   1 -0.550000     0.735123586     3.600602097     5.749525824
     21      0   1 -0.550000     5.961957062     2.916360475     9.029757111
     22      0   1 -0.550000     1.816074863     2.121859617     1.976135927
     23      0   2  1.100000     8.644870858     1.553461621     2.752986216
     24      0   2  1.100000     2.694297514     1.095347445    10.326928285
     25      0   2  1.100000     5.552387400     0.301086922     6.043260452
     26      0   2  1.100000     1.146609106     2.796333091     7.036886159
     27      0   2  1.100000     6.477704679     2.916139393    10.561211766
     28      0   2  1.100000     3.328321447     2.840786472     2.646415932
     29      0   2  1.100000     3.733540652     3.550985054    11.735481511
     30      0   2  1.100000     1.037194864     3.922835490     4.255562473
     31      0   2  1.100000     6.567768691     2.862469696     7.542142317
     32      0   2  1.100000     2.842333928     0.257829516     7.466491337
     33      0   2  1.100000     8.169081783     0.436288145    11.146908521
     34      0   2  1.100000     5.422993326     0.452454234     2.872130327
     35      0   1 -0.550000     3.431018931     0.419821695    22.407792592
     36      0   1 -0.550000     8.868066968     0.097785001    15.208869207
     37      0   1 -0.550000     6.028457406    -0.660079691    19.392316065
     38      0   1 -0.550000     1.579366672     3.869060895    19.119021167
     39      0   1 -0.550000     7.450511427     4.155783581    22.717575103
     40      0   1 -0.550000     4.954804373     3.885420424    14.985711613
     41      0   1 -0.550000     4.815744328     3.434829019    23.687893442
     42      0   1 -0.550000     2.432378948     3.359563104    15.622022519
     43      0   1 -0.550000     7.793664503     2.367467362    19.409247079
     44      0   1 -0.550000     2.776434497     1.089200553    20.132458380
     45      0   1 -0.550000     8.590337789     0.531990529    12.691780059
     46      0   1 -0.550000     5.900315604     0.409403567    16.860683515
     47      0   1 -0.550000     2.746528922     2.965522484    21.990443654
     48      0   1 -0.550000     5.349359874     1.822990554    18.982634565
     49      0   1 -0.550000     1.478445428     1.372788634    18.102885220
     50      0   1 -0.550000     7.471708962     1.648749367    23.731897331
     51      0   1 -0.550000     4.134887439     1.401397258    15.123290574
     52      0   1 -0.550000     6.563733985     0.870402638    14.325750208
     53      0   1 -0.550000     0.947965940     0.982908775    21.987764568
     54      0   1 -0.550000     3.751439169    -0.009185308    18.151689636
     55      0   1 -0.550000     0.198800789     3.250959380    16.991682769
     56      0   1 -0.550000     6.073228346     2.459224478    21.463661776
     57      0   1 -0.550000     3.282158483     3.037690385    13.194319135
     58      0   2  1.100000     8.145563322     1.034133821    14.152170815
     59      0   2  1.100000     2.467554106     1.409938294    21.625507354
     60      0   2  1.100000     5.285108652     0.359213408    18.343500826
     61      0   2  1.100000     0.664848800     2.726759786    18.416149350
     62      0   2  1.100000     6.420453691     2.902321915    23.014686154
     63      0   2  1.100000     3.703625479     2.914740420    14.739060568
     64      0   2  1.100000     3.201473556     4.013044190    23.139091659
     65      0   2  1.100000     0.833784871     3.562034874    15.554550424
     66      0   2  1.100000     6.301729467     2.765934562    19.847239201
     67      0   2  1.100000     2.365621211     0.288693349    18.844756874
     68      0   2  1.100000     8.521506789     0.316528969    23.240450845
     69      0   2  1.100000     5.396149003     0.408251746    15.326159630
     70      0   1 -0.550000     1.679336674     4.572946468    23.905520305
     71      0   1 -0.550000     1.688519289     9.559041326    23.912411549
     72      0   1 -0.550000     1.698319010    14.537824354    23.902737141
     73      0   1 -0.550000     1.689070863    19.520226013    23.898116771
     74      0   1 -0.550000     1.688586801    24.494092255    23.900847657
     75      0   1 -0.550000     1.695119888    29.476394405    23.910109275
     76      0   1 -0.550000     1.690752654    34.454162818    23.907225872
     77      0   1 -0.550000    10.026997347     4.569304449    23.913391718
     78      0   1 -0.550000    10.032075756     9.559017446    23.907544375
     79      0   1 -0.550000    10.024670272    14.547946771    23.906028954
     80      0   1 -0.550000    10.032220974    19.514959427    23.899020663
     81      0   1 -0.550000    10.032585027    24.488620881    23.907266041
     82      0   1 -0.550000    10.036947526    29.468921379    23.905528022
     83      0   1 -0.550000    10.035765500    34.439299767    23.910387246
     84      0   1 -0.550000    18.376324946     4.590185004    23.910024453
     85      0   1 -0.550000    18.368293003     9.576038227    23.921689161
     86      0   1 -0.550000    18.370633469    14.552570568    23.918122366
     87      0   1 -0.550000    18.378362423    19.529879946    23.914024920
     88      0   1 -0.550000    18.386585088    24.506225500    23.912036349
     89      0   1 -0.550000    18.386995480    29.471352040    23.906676149
     90      0   1 -0.550000    18.386529968    34.458366935    23.912144850
     91      0   1 -0.550000    26.715224541     4.592157375    23.906023946
     92      0   1 -0.550000    26.712590675     9.567788780    23.907693924
     93      0   1 -0.550000    26.715748084    14.552453834    23.912335399
     94      0   1 -0.550000    26.729467209    19.523112194    23.904063425
     95      0   1 -0.550000    26.719934517    24.501148149    23.906916327
     96      0   1 -0.550000    26.727732729    29.487760372    23.897600281
     97      0   1 -0.550000    26.716528439    34.450352714    23.900641343
     98      0   1 -0.550000     3.305817400     5.083341605    11.454108523
     99      0   1 -0.550000     9.097437838     5.474660543     3.902160727
    100      0   1 -0.550000     6.504400104     4.325693276     6.901001565
    101      0   1 -0.550000     2.035296608     8.863849199     7.785757478
    102      0   1 -0.550000     7.745306458     8.872205499    10.739187269
    103      0   1 -0.550000     4.382231095     9.143465252     2.160020862
    104      0   1 -0.550000     5.320109091     8.358837973    11.560119851
    105      0   1 -0.550000     2.562376207     8.475297062     3.895578689
    106      0   1 -0.550000     8.105257003     7.459945948     7.734964793
    107      0   1 -0.550000     3.319701164     5.751056597     8.894168852
    108      0   1 -0.550000     5.774406595     4.969725446     4.422609626
    109      0   1 -0.550000     3.018450453     7.591263997    10.673845152
    110      0   1 -0.550000     5.831072786     6.815885825     6.490214427
    111      0   1 -0.550000     1.933630200     6.385978278     6.769554369
    112      0   1 -0.550000     6.925021357     6.389360395    10.924741722
    113      0   1 -0.550000     4.394137289     6.675063085     3.176089426
    114      0   1 -0.550000     7.027626384     5.953761281     2.202340423
    115      0   1 -0.550000     1.093335615     5.873201609    10.263538358
    116      0   1 -0.550000     4.060585593     4.889320607     6.479436341
    117      0   1 -0.550000     0.741621081     8.583154071     5.753487927
    118      0   1 -0.550000     5.963341500     7.875846046     9.028626233
    119      0   1 -0.550000     1.818732952     7.094602315     1.982573136
    120      0   2  1.100000     8.641677623     6.525231465     2.754589726
    121      0   2  1.100000     2.691645796     6.070771056    10.330114094
    122      0   2  1.100000     5.554404683     5.274511093     6.041168799
    123      0   2  1.100000     1.150547798     7.778875508     7.040383285
    124      0   2  1.100000     6.479323983     7.883428857    10.559346310
    125      0   2  1.100000     3.333420991     7.813341150     2.651553832
    126      0   2  1.100000     3.737858655     8.521916356    11.735849807
    127      0   2  1.100000     1.043717571     8.901649538     4.259933757
    128      0   2  1.100000     6.573678190     7.831973503     7.542743128
    129      0   2  1.100000     2.842792608     5.235715440     7.470115833
    130      0   2  1.100000     8.176106316     5.412814640    11.157235782
    131      0   2  1.100000     5.424670898     5.421257677     2.873622727
    132      0   1 -0.550000     3.421750003     5.394793170    22.412675339
    133      0   1 -0.550000     8.876978594     5.067670813    15.218567074
    134      0   1 -0.550000     6.036167435     4.309673450    19.396340706
    135      0   1 -0.550000     1.586205425     8.844703818    19.115736058
    136      0   1 -0.550000     7.458556728     9.129349756    22.718341801
    137      0   1 -0.550000     4.957811117     8.858098198    14.977513387
    138      0   1 -0.550000     4.820996461     8.413161115    23.691683351
    139      0   1 -0.550000     2.434852864     8.335927992    15.617007184
    140      0   1 -0.550000     7.788768786     7.355373983    19.415646338
    141      0   1 -0.550000     2.771623703     6.063054982    20.138468747
    142      0   1 -0.550000     8.597898628     5.506068475    12.702847561
    143      0   1 -0.550000     5.901824192     5.387770524    16.867604351
    144      0   1 -0.550000     2.741561648     7.939536842    22.000149405
    145      0   1 -0.550000     5.347591104     6.794487915    18.991204418
    146      0   1 -0.550000     1.488879798     6.342818102    18.101642410
    147      0   1 -0.550000     7.469347206     6.622018951    23.737127785
    148      0   1 -0.550000     4.137176610     6.373613871    15.125361673
    149      0   1 -0.550000     6.569611069     5.843477899    14.335138456
    150      0   1 -0.550000     0.941093902     5.957208053    21.991166832
    151      0   1 -0.550000     3.757446996     4.955147567    18.162142885
    152      0   1 -0.550000     0.205761922     8.223304770    16.990352808
    153      0   1 -0.550000     6.072431766     7.437680888    21.469356638
    154      0   1 -0.550000     3.286502329     8.006694730    13.191840870
    155      0   2  1.100000     8.152593316     6.007064108    14.163145776
    156      0   2  1.100000     2.460118561     6.384533851    21.630451578
    157      0   2  1.100000     5.288499381     5.330672139    18.352309626
    158      0   2  1.100000     0.674786928     7.698376009    18.412851154
    159      0   2  1.100000     6.424083177     7.878791755    23.020529825
    160      0   2  1.100000     3.706249327     7.886501153    14.736333937
    161      0   2  1.100000     3.206054706     8.989273930    23.144664528
    162      0   2  1.100000     0.836259079     8.537077640    15.553130030
    163      0   2  1.100000     6.295502780     7.745940772    19.851849845
    164      0   2  1.100000     2.368605070     5.257382146    18.849325649
    165      0   2  1.100000     8.514387950     5.290674851    23.245129157
    166      0   2  1.100000     5.399386759     5.383831905    15.333331775
    167      0   1 -0.550000     3.311926637    10.054283980    11.458200255
    168      0   1 -0.550000     9.107012235    10.447271430     3.902638324
    169      0   1 -0.550000     6.513255164     9.298318562     6.909805531
    170      0   1 -0.550000     2.032214132    13.844764121     7.790953857
    171      0   1 -0.550000     7.752907715    13.843275818    10.759388465
    172      0   1 -0.550000     4.383775710    14.120416877     2.168237145
    173      0   1 -0.550000     5.322477810    13.318366845    11.572024162
    174      0   1 -0.550000     2.564392246    13.446405600     3.904467935
    175      0   1 -0.550000     8.124702599    12.448700484     7.745937022
    176      0   1 -0.550000     3.323741656    10.733348399     8.901639123
    177      0   1 -0.550000     5.784719148     9.947394809     4.428322461
    178      0   1 -0.550000     3.010515008    12.561622463    10.688030536
    179      0   1 -0.550000     5.854122580    11.793975176     6.498320554
    180      0   1 -0.550000     1.944710061    11.366682004     6.775429976
    181      0   1 -0.550000     6.933668092    11.353234800    10.923319662
    182      0   1 -0.550000     4.395893416    11.648095782     3.180062353
    183      0   1 -0.550000     7.035548951    10.930411442     2.207437913
    184      0   1 -0.550000     1.092235832    10.833803763    10.270196853
    185      0   1 -0.550000     4.073649787     9.870563988     6.487584929
    186      0   1 -0.550000     0.741196017    13.555556349     5.759706532
    187      0   1 -0.550000     5.977205702    12.849705216     9.036201124
    188      0   1 -0.550000     1.821426846    12.076216355     1.986105902
    189      0   2  1.100000     8.652294855    11.500230930     2.757909851
    190      0   2  1.100000     2.690855919    11.041197348    10.337587913
    191      0   2  1.100000     5.568846298    10.252471427     6.048194273
    192      0   2  1.100000     1.154293932    12.754976292     7.047014034
    193      0   2  1.100000     6.487732798    12.850698578    10.569567540
    194      0   2  1.100000     3.335958866    12.789593388     2.657849442
    195      0   2  1.100000     3.739535978    13.493737759    11.744695400
    196      0   2  1.100000     1.045481851    13.875127466     4.267128973
    197      0   2  1.100000     6.589719245    12.812110461     7.552525349
    198      0   2  1.100000     2.853432758    10.215892707     7.476668957
    199      0   2  1.100000     8.182797852    10.373885809    11.151980922
    200      0   2  1.100000     5.431366475    10.396076266     2.878776527
    201      0   1 -0.550000     3.430599910    10.366185599    22.412782069
    202      0   1 -0.550000     8.877289143    10.044615278    15.216865041
    203      0   1 -0.550000     6.023807836     9.288695808    19.397584753
    204      0   1 -0.550000     1.570507849    13.830330495    19.119098888
    205      0   1 -0.550000     7.458475718    14.117536638    22.708076197
    206      0   1 -0.550000     4.951665466    13.829912529    14.997715246
    207      0   1 -0.550000     4.827362048    13.394125781    23.679744894
    208      0   1 -0.550000     2.427268005    13.303422721    15.629705329
    209      0   1 -0.550000     7.787908465    12.327925795    19.391887395
    210      0   1 -0.550000     2.781036921    11.034275278    20.138933312
    211      0   1 -0.550000     8.600818398    10.462411530    12.698099447
    212      0   1 -0.550000     5.905398547    10.356327932    16.863159177
    213      0   1 -0.550000     2.749566328    12.913751128    21.993986160
    214      0   1 -0.550000     5.348020659    11.775618140    18.978447857
    215      0   1 -0.550000     1.479974870    11.327954455    18.108817693
    216      0   1 -0.550000     7.473204987    11.607270934    23.727378469
    217      0   1 -0.550000     4.137144580    11.345802730    15.125806758
    218      0   1 -0.550000     6.571896093    10.819426169    14.328060291
    219      0   1 -0.550000     0.951185622    10.931903857    21.992401321
    220      0   1 -0.550000     3.752806447     9.944010299    18.151201456
    221      0   1 -0.550000     0.192642790    13.200095882    16.996097345
    222      0   1 -0.550000     6.081147984    12.417159489    21.455527564
    223      0   1 -0.550000     3.282406405    12.991603483    13.203214550
    224      0   2  1.100000     8.155947208    10.976794984    14.154979927
    225      0   2  1.100000     2.469879806    11.356588473    21.631139519
    226      0   2  1.100000     5.286688532    10.309271483    18.344485454
    227      0   2  1.100000     0.660180938    12.679883554    18.420224174
    228      0   2  1.100000     6.428627963    12.862533429    23.008221221
    229      0   2  1.100000     3.701416811    12.860594592    14.746812028
    230      0   2  1.100000     3.213258774    13.968797561    23.132694102
    231      0   2  1.100000     0.827811077    13.510328487    15.560979401
    232      0   2  1.100000     6.298511349    12.724866502    19.835323309
    233      0   2  1.100000     2.367788609    10.239097340    18.847397355
    234      0   2  1.100000     8.516976738    10.272379032    23.237802973
    235      0   2  1.100000     5.402347317    10.356583641    15.327328661
    236      0   1 -0.550000     3.322590515    15.027694597    11.457624907
    237      0   1 -0.550000     9.115531229    15.421256197     3.905638330
    238      0   1 -0.550000     6.515472898    14.280286725     6.920314357
    239      0   1 -0.550000     2.048790636    18.823249544     7.787934716
    240      0   1 -0.550000     7.746415543    18.824167449    10.762030067
    241      0   1 -0.550000     4.395622535    19.092784009     2.164080900
    242      0   1 -0.550000     5.319496244    18.277244458    11.571327298
    243      0   1 -0.550000     2.575338413    18.424769470     3.904438982
    244      0   1 -0.550000     8.112465826    17.416637187     7.735867186
    245      0   1 -0.550000     3.327316171    15.707489009     8.900481391
    246      0   1 -0.550000     5.786700869    14.922556056     4.434786304
    247      0   1 -0.550000     3.005920641    17.534831798    10.686482173
    248      0   1 -0.550000     5.832892384    16.771712656     6.503298452
    249      0   1 -0.550000     1.950743043    16.345990092     6.774533621
    250      0   1 -0.550000     6.937660950    16.328668558    10.896273326
    251      0   1 -0.550000     4.409141370    16.626724329     3.186295846
    252      0   1 -0.550000     7.040180829    15.899286020     2.213523910
    253      0   1 -0.550000     1.096983083    15.800716063    10.271499975
    254      0   1 -0.550000     4.072174945    14.839249034     6.491150197
    255      0   1 -0.550000     0.750909397    18.537822066     5.758880165
    256      0   1 -0.550000     5.972508919    17.843613185     9.029676939
    257      0   1 -0.550000     1.833576271    17.045864592     1.991476896
    258      0   2  1.100000     8.656338619    16.470566818     2.760286648
    259      0   2  1.100000     2.694850655    16.012301804    10.337698239
    260      0   2  1.100000     5.564631142    15.227443969     6.053377152
    261      0   2  1.100000     1.163120107    17.736286990     7.046531633
    262      0   2  1.100000     6.485738360    17.829128988    10.562157673
    263      0   2  1.100000     3.347858471    17.763398943     2.659928583
    264      0   2  1.100000     3.737866611    18.466665130    11.737764162
    265      0   2  1.100000     1.056866288    18.854922961     4.265754234
    266      0   2  1.100000     6.581806594    17.793522547     7.544709941
    267      0   2  1.100000     2.854202042    15.191800823     7.477587054
    268      0   2  1.100000     8.187845680    15.355783396    11.143187577
    269      0   2  1.100000     5.436281904    15.370196666     2.885236124
    270      0   1 -0.550000     3.435132625    15.345512995    22.397494014
    271      0   1 -0.550000     8.884948550    15.023161269    15.199281995
    272      0   1 -0.550000     6.027913603    14.268919782    19.386597560
    273      0   1 -0.550000     1.567627228    18.812439493    19.109939815
    274      0   1 -0.550000     7.455157400    19.095617116    22.706701105
    275      0   1 -0.550000     4.950424695    18.808600177    14.988269670
    276      0   1 -0.550000     4.818364758    18.380584201    23.679002153
    277      0   1 -0.550000     2.427283147    18.270681766    15.621948928
    278      0   1 -0.550000     7.786827521    17.323173075    19.403857457
    279      0   1 -0.550000     2.771336651    16.023032680    20.126856299
    280      0   1 -0.550000     8.608215514    15.471627881    12.688146630
    281      0   1 -0.550000     5.898794353    15.349896031    16.858510221
    282      0   1 -0.550000     2.744788579    17.895881429    21.988231460
    283      0   1 -0.550000     5.342584447    16.756588196    18.980040786
    284      0   1 -0.550000     1.482176996    16.305872307    18.096100866
    285      0   1 -0.550000     7.464073569    16.591560938    23.724647439
    286      0   1 -0.550000     4.135083944    16.318817155    15.108546789
    287      0   1 -0.550000     6.568667965    15.776148084    14.316886453
    288      0   1 -0.550000     0.954318930    15.907889618    21.984758496
    289      0   1 -0.550000     3.749403544    14.915970904    18.150763146
    290      0   1 -0.550000     0.194408768    18.180776753    16.984420271
    291      0   1 -0.550000     6.069783388    17.402312925    21.455454309
    292      0   1 -0.550000     3.276880107    17.971028670    13.195744470
    293      0   2  1.100000     8.151872935    15.961516863    14.149152749
    294      0   2  1.100000     2.470276040    16.338576153    21.621100217
    295      0   2  1.100000     5.282218377    15.291766393    18.343184168
    296      0   2  1.100000     0.663707088    17.658140970    18.407258465
    297      0   2  1.100000     6.420157065    17.846331595    23.005800343
    298      0   2  1.100000     3.700780890    17.834961875    14.737338391
    299      0   2  1.100000     3.204434425    18.951787550    23.129703355
    300      0   2  1.100000     0.830129413    18.485933646    15.550324927
    301      0   2  1.100000     6.291465067    17.710320382    19.837294957
    302      0   2  1.100000     2.361411269    15.217792176    18.840379972
    303      0   2  1.100000     8.513251789    15.261740573    23.233797050
    304      0   2  1.100000     5.398519254    15.331476073    15.323719709
    305      0   1 -0.550000     3.334939005    20.004199686    11.449572806
    306      0   1 -0.550000     9.112860679    20.399230852     3.901698090
    307      0   1 -0.550000     6.525350105    19.259261479     6.906220809
    308      0   1 -0.550000     2.035258894    23.801233818     7.787530193
    309      0   1 -0.550000     7.742207348    23.806725946    10.769863144
    310      0   1 -0.550000     4.390935050    24.074279437     2.156139751
    311      0   1 -0.550000     5.314843376    23.262261268    11.574175526
    312      0   1 -0.550000     2.578642969    23.396126182     3.894753217
    313      0   1 -0.550000     8.126582180    22.415469947     7.741135886
    314      0   1 -0.550000     3.341887030    20.689461438     8.897292582
    315      0   1 -0.550000     5.800278397    19.908231567     4.428132823
    316      0   1 -0.550000     3.005921961    22.514391312    10.686666948
    317      0   1 -0.550000     5.855399436    21.758308844     6.497162695
    318      0   1 -0.550000     1.962736052    21.323412718     6.770153113
    319      0   1 -0.550000     6.930112923    21.313368313    10.892273516
    320      0   1 -0.550000     4.412768639    21.602948241     3.173307948
    321      0   1 -0.550000     7.047426719    20.877810262     2.203401325
    322      0   1 -0.550000     1.110167057    20.769663821    10.260855495
    323      0   1 -0.550000     4.089826595    19.825743693     6.484277932
    324      0   1 -0.550000     0.756585139    23.510447302     5.753136835
    325      0   1 -0.550000     5.975693152    22.837533909     9.028942358
    326      0   1 -0.550000     1.833191630    22.022374962     1.982261341
    327      0   2  1.100000     8.662212663    21.449667582     2.753357170
    328      0   2  1.100000     2.705791346    20.989629096    10.332318470
    329      0   2  1.100000     5.581156000    20.214637023     6.046847346
    330      0   2  1.100000     1.164957476    22.707785596     7.041387549
    331      0   2  1.100000     6.481150639    22.816265806    10.563564589
    332      0   2  1.100000     3.348397583    22.738990555     2.647566479
    333      0   2  1.100000     3.732344666    23.450369422    11.740423691
    334      0   2  1.100000     1.061274731    23.827534326     4.259402793
    335      0   2  1.100000     6.593013963    22.783173601     7.545681980
    336      0   2  1.100000     2.870451834    20.172193311     7.473719709
    337      0   2  1.100000     8.178786909    20.338367420    11.142635966
    338      0   2  1.100000     5.444528227    20.348204037     2.876706461
    339      0   1 -0.550000     3.426379411    20.327919679    22.393044279
    340      0   1 -0.550000     8.873958132    20.013314167    15.200017821
    341      0   1 -0.550000     6.017277581    19.253791679    19.384896633
    342      0   1 -0.550000     1.578086476    23.796595734    19.119087878
    343      0   1 -0.550000     7.459965031    24.071682638    22.708471348
    344      0   1 -0.550000     4.940433760    23.789626578    15.000111946
    345      0   1 -0.550000     4.823182171    23.355356731    23.677590546
    346      0   1 -0.550000     2.417824111    23.241460424    15.631936388
    347      0   1 -0.550000     7.789231472    22.291719643    19.396531342
    348      0   1 -0.550000     2.765394883    21.005801787    20.124300790
    349      0   1 -0.550000     8.599651141    20.458397721    12.684985205
    350      0   1 -0.550000     5.893776406    20.330696860    16.854501476
    351      0   1 -0.550000     2.748104268    22.877929052    21.985517949
    352      0   1 -0.550000     5.343080137    21.740980752    18.975754444
    353      0   1 -0.550000     1.473729323    21.297062719    18.100328522
    354      0   1 -0.550000     7.474250699    21.566636957    23.721164299
    355      0   1 -0.550000     4.127474365    21.298899604    15.106130477
    356      0   1 -0.550000     6.561618181    20.768947668    14.315318354
    357      0   1 -0.550000     0.945899586    20.898958709    21.983936611
    358      0   1 -0.550000     3.742765997    19.907846371    18.143623910
    359      0   1 -0.550000     0.187994463    23.177379235    17.001439342
    360      0   1 -0.550000     6.077506945    22.378655660    21.452361506
    361      0   1 -0.550000     3.267504765    22.959229817    13.201260261
    362      0   2  1.100000     8.144012778    20.950661998    14.146162989
    363      0   2  1.100000     2.463677100    21.322924278    21.618931547
    364      0   2  1.100000     5.276520051    20.276924099    18.337727119
    365      0   2  1.100000     0.661952848    22.650633836    18.421316460
    366      0   2  1.100000     6.426477382    22.820310054    23.003699888
    367      0   2  1.100000     3.691243499    22.816036506    14.743457895
    368      0   2  1.100000     3.206420136    23.928917950    23.131714598
    369      0   2  1.100000     0.822687228    23.469949110    15.563440665
    370      0   2  1.100000     6.298420512    22.688652525    19.833961842
    371      0   2  1.100000     2.356006407    20.203707613    18.836227239
    372      0   2  1.100000     8.518498567    20.231802583    23.231720611
    373      0   2  1.100000     5.392369760    20.312807887    15.318448054
    374      0   1 -0.550000     3.327175047    24.987806166    11.448192226
    375      0   1 -0.550000     9.121651119    25.376944891     3.894331516
    376      0   1 -0.550000     6.526397422    24.245721139     6.903608004
    377      0   1 -0.550000     2.032355107    28.778321439     7.774188882
    378      0   1 -0.550000     7.738824889    28.788730999    10.746753600
    379      0   1 -0.550000     4.389966619    29.055164567     2.149016982
    380      0   1 -0.550000     5.314167157    28.257407286    11.562177950
    381      0   1 -0.550000     2.575352129    28.380680168     3.888752615