LAMMPS 2005 data file for silica_Q3_0pct_ioniz8

   2184 atoms
   2800 bonds
   5432 angles

   4 atom types
   3 bond types
   4 angle types

     0.000000000    33.367500000 xlo xhi
     0.000000000    34.842000000 ylo yhi
     0.000000000    66.858400000 zlo zhi

Masses

   1  15.999400
   2  15.999400
   3  28.086000
   4   1.008000

Pair Coeffs

   1   0.0400000000   3.6000000000 
   2   0.1200000000   3.6000000000 
   3   0.0800000000   4.2000000000 
   4   0.0130000000   1.0980000000 

Bond Coeffs

  1     1.6800   285.0000     0.0000     0.0000 
  2     1.6800   285.0000     0.0000     0.0000 
  3     0.9450   495.0000     0.0000     0.0000 

Angle Coeffs

  1   149.0000   100.0000     0.0000     0.0000 
  2   115.0000    50.0000     0.0000     0.0000 
  3   109.5000   100.0000     0.0000     0.0000 
  4   109.5000   100.0000     0.0000     0.0000 

Atoms

      1      0   1 -0.550000     3.466240769     0.025726704    11.279426463
      2      0   1 -0.550000     9.553962146     0.161897670     2.968301340
      3      0   1 -0.550000     6.506951407    -0.028617615     7.053127484
      4      0   1 -0.550000     2.329227809     3.840980061     6.968606792
      5      0   1 -0.550000     7.610790930     3.664460463    11.237001978
      6      0   1 -0.550000     5.512655134     3.695965675     3.037312467
      7      0   1 -0.550000     5.149105798     2.847695913    11.568734780
      8      0   1 -0.550000     2.889391173     2.946839710     3.461395862
      9      0   1 -0.550000     8.270283529     2.964094313     7.591153699
     10      0   1 -0.550000     3.232410725     0.739251124     8.630607729
     11      0   2 -0.675000     9.111764029     1.303005390     0.582193367
     12      0   1 -0.550000     6.240781591     0.852404826     4.575046646
     13      0   1 -0.550000     2.729410989     2.481351009    10.581524317
     14      0   1 -0.550000     5.885958826     2.452466537     6.611865329
     15      0   1 -0.550000     1.537402479     1.335636224     6.603092542
     16      0   1 -0.550000     7.000480353     1.269646213    10.691708764
     17      0   1 -0.550000     4.654694213     1.202997448     2.647823168
     18      0   1 -0.550000     7.112466482     0.510204384     2.123061251
     19      0   1 -0.550000     1.064137217     0.492245715    10.138560284
     20      0   1 -0.550000     4.052001360     0.590458894     6.083528934
     21      0   1 -0.550000     0.733831742     3.275451739     4.995201432
     22      0   1 -0.550000     6.056951322     3.127001285     9.109187764
     23      0   2 -0.675000     3.884045041     3.091338413     1.066840271
     24      0   3  1.100000     8.619710345     1.166822268     2.112180263
     25      0   3  1.100000     2.642413435     0.956612429    10.124942344
     26      0   3  1.100000     5.625552253     0.945599509     6.096701041
     27      0   3  1.100000     1.097607148     2.861803708     6.508927881
     28      0   3  1.100000     6.463325578     2.716336217    10.627156467
     29      0   3  1.100000     4.273684208     2.729001087     2.588691365
     30      0   3  1.100000     3.595287075     3.370493702    11.628835564
     31      0   3  1.100000     1.327433212     3.474802118     3.476185215
     32      0   3  1.100000     6.658398518     3.367496458     7.631809969
     33      0   3  1.100000     2.823917249     0.407084168     7.025761365
     34      0   3  1.100000     8.265811871     0.508165606    11.193399983
     35      0   3  1.100000     5.889756440     0.361621244     3.114985166
     36      0   4  0.400000     4.134545162     2.367394925     0.524570215
     37      0   4  0.400000     8.867307478     0.517972258     0.126978895
     38      0   1 -0.550000     2.772259343    -0.045010410    23.283726574
     39      0   1 -0.550000     8.852906127     0.082309494    15.253209661
     40      0   1 -0.550000     5.885324812    -0.042506031    19.193407987
     41      0   1 -0.550000     1.857629380     3.846172722    19.006298126
     42      0   1 -0.550000     7.182758906     3.818849839    23.000966264
     43      0   1 -0.550000     4.677301202     3.674149121    14.937124955
     44      0   1 -0.550000     4.740716972     3.212974656    23.730097287
     45      0   1 -0.550000     2.274164631     3.035012393    15.603601159
     46      0   1 -0.550000     7.597676056     2.982014683    19.564160545
     47      0   1 -0.550000     2.742325963     0.627595981    20.659133122
     48      0   1 -0.550000     8.609431871     0.953622195    12.674705899
     49      0   1 -0.550000     5.562865003     0.870450610    16.700145374
     50      0   1 -0.550000     2.403043856     2.489697750    22.566774530
     51      0   1 -0.550000     5.182700294     2.455833016    18.679606079
     52      0   1 -0.550000     1.010209792     1.297471017    19.010748663
     53      0   1 -0.550000     6.418281549     1.327575238    22.859749028
     54      0   1 -0.550000     3.957694006     1.307588243    14.573574033
     55      0   1 -0.550000     6.515667845     0.653500606    14.204524815
     56      0   1 -0.550000     0.561837630     0.648018554    22.204074303
     57      0   1 -0.550000     3.456162197     0.594557353    18.314484494
     58      0   1 -0.550000     0.178873752     3.001649581    17.078097617
     59      0   1 -0.550000     5.508683974     2.996439522    21.191396662
     60      0   1 -0.550000     3.016502122     3.111917691    13.100517512
     61      0   3  1.100000     8.051970896     1.055773493    14.163474904
     62      0   3  1.100000     2.161339119     0.899108465    22.176709646
     63      0   3  1.100000     5.014120467     0.934652803    18.206132162
     64      0   3  1.100000     0.660914752     2.880567450    18.644973448
     65      0   3  1.100000     5.980261704     2.814009306    22.690053039
     66      0   3  1.100000     3.496207964     2.808223842    14.586144215
     67      0   3  1.100000     3.057446944     3.406355214    23.700962952
     68      0   3  1.100000     0.669292677     3.383806682    15.618004431
     69      0   3  1.100000     6.014073007     3.358365548    19.686457633
     70      0   3  1.100000     2.221138251     0.284433599    19.257961260
     71      0   3  1.100000     7.608495056     0.290365218    23.311093182
     72      0   3  1.100000     5.199182214     0.416737902    15.173534123
     73      0   2 -0.675000     8.214286984     0.663405235    24.771187343
     74      0   2 -0.675000     2.573369146     3.077540910    25.238571771
     75      0   2 -0.675000     7.982759775     5.671241918    24.688172439
     76      0   2 -0.675000     2.925297703     8.085604210    25.137879591
     77      0   2 -0.675000     7.902465854    10.517670575    24.633767015
     78      0   2 -0.675000     2.410652014    12.962248352    25.030118453
     79      0   2 -0.675000     8.118879679    15.529187860    24.699237321
     80      0   2 -0.675000     2.616784383    18.051377727    25.230257988
     81      0   2 -0.675000     8.134497290    20.521013641    24.687780261
     82      0   2 -0.675000     2.524913629    23.497032478    25.107240932
     83      0   2 -0.675000     8.085608903    25.503569593    24.694457042
     84      0   2 -0.675000     2.696573579    28.381379147    25.288918836
     85      0   2 -0.675000     7.880638146    30.491422591    24.724572798
     86      0   2 -0.675000     2.570099130    33.088578102    25.262205858
     87      0   2 -0.675000    16.424798755     0.883178123    24.922029524
     88      0   2 -0.675000    11.023550099     3.146629172    25.291865049
     89      0   2 -0.675000    16.544567085     5.851490479    24.630428624
     90      0   2 -0.675000    11.075008104     8.129829859    25.170549381
     91      0   2 -0.675000    16.540261762    10.695932745    24.960786852
     92      0   2 -0.675000    10.926473972    13.111654092    25.095717533
     93      0   2 -0.675000    16.413885771    15.571601608    24.871943910
     94      0   2 -0.675000    10.773668829    18.125436642    24.972766816
     95      0   2 -0.675000    16.546736156    20.979721085    24.367439156
     96      0   2 -0.675000    11.128434782    23.092344502    25.231239409
     97      0   2 -0.675000    16.369002608    25.652279447    24.601163563
     98      0   2 -0.675000    11.060258221    28.114700994    25.064751084
     99      0   2 -0.675000    16.647949530    30.590225975    24.424660067
    100      0   2 -0.675000    10.959945395    33.374982034    25.292780130
    101      0   2 -0.675000    24.789817063     0.394516995    24.731185191
    102      0   2 -0.675000    19.528125906     3.541715736    25.269212381
    103      0   2 -0.675000    24.549313719     5.681174396    24.777799737
    104      0   2 -0.675000    19.345420699     8.225007364    25.278966101
    105      0   2 -0.675000    24.712830453    10.495017920    24.756719684
    106      0   2 -0.675000    19.432785235    13.290508284    25.396615587
    107      0   2 -0.675000    24.552750816    15.750560702    24.848245435
    108      0   2 -0.675000    19.178332605    18.249888109    25.041314060
    109      0   2 -0.675000    24.508933789    20.687182969    24.702183533
    110      0   2 -0.675000    18.913400608    22.788514332    25.041444786
    111      0   2 -0.675000    24.960975770    25.402433432    24.856428492
    112      0   2 -0.675000    19.451173110    28.020845672    25.160662984
    113      0   2 -0.675000    24.845413309    30.350033045    24.441484696
    114      0   2 -0.675000    19.616225400    32.850476986    25.109990080
    115      0   2 -0.675000    27.697291313     3.361432381    25.093034724
    116      0   2 -0.675000    27.793166047     8.391733920    25.182137167
    117      0   2 -0.675000    27.510546323    13.056694658    25.124654804
    118      0   2 -0.675000    27.344592989    18.293801647    25.203088445
    119      0   2 -0.675000    27.594007326    23.101962273    25.276609131
    120      0   2 -0.675000    27.550526451    28.333529177    25.213694810
    121      0   2 -0.675000    27.561470265    33.113183394    24.962488241
    122      0   2 -0.675000    33.111783794     0.773324818    24.707420377
    123      0   2 -0.675000    33.012237253     5.662808192    24.639070197
    124      0   2 -0.675000    33.017544068    10.380567481    24.752725712
    125      0   2 -0.675000    33.091393928    15.564491104    24.790827459
    126      0   2 -0.675000    32.970992082    20.861123373    24.817212646
    127      0   2 -0.675000    33.100837991    25.584284090    24.631214931
    128      0   2 -0.675000    33.029725078    30.564750306    24.626042475
    129      0   4  0.400000    33.420282645    24.806302251    25.054183389
    130      0   4  0.400000    28.128482959    33.467827605    25.621080249
    131      0   4  0.400000    11.686973352    33.618266814    25.834884770
    132      0   4  0.400000    33.473034842    29.829261530    25.012695471
    133      0   4  0.400000    17.266558811    29.906703750    24.619520213
    134      0   4  0.400000    27.760063865    27.514148958    25.621011151
    135      0   4  0.400000    11.797268055    28.248042519    25.629798563
    136      0   4  0.400000     7.673581910    24.850643538    25.227483541
    137      0   4  0.400000    25.553448960    29.765009485    24.658199840
    138      0   4  0.400000    24.512115930    24.869597521    25.485890082
    139      0   4  0.400000    28.038147665    18.323947306    25.834607285
    140      0   4  0.400000    23.744828401    15.652360888    25.315113519
    141      0   4  0.400000    27.817623350     9.274656855    25.501174608
    142      0   4  0.400000    25.328683327    -0.331045787    24.992980111
    143      0   4  0.400000    16.820858126    20.256773011    24.890600630
    144      0   4  0.400000    32.874525453    14.768501954    25.237729743
    145      0   4  0.400000    32.641460946     4.980248016    25.166248881
    146      0   4  0.400000     3.105144531    23.979962672    25.666341167
    147      0   4  0.400000     3.068477439    13.071229726    25.687238523
    148      0   4  0.400000    20.124166746     8.374617897    25.779953945
    149      0   4  0.400000    19.092340257    14.142352912    25.603711227
    150      0   4  0.400000    10.857785001    18.903692139    25.489529949
    151      0   4  0.400000    11.405261181     8.851645832    25.665761243
    152      0   4  0.400000     8.818930695    -0.012908016    25.030809394
    153      0   4  0.400000    16.478511627     5.138263881    25.237034076
    154      0   4  0.400000    19.593240881    22.474955353    25.606240618
    155      0   4  0.400000     7.603659198     9.757454097    25.098326017
    156      0   4  0.400000     3.285912347     3.260658575    25.820054501
    157      0   4  0.400000     2.645453673    33.906910316    25.717453280
    158      0   4  0.400000    10.592484610    23.787101273    25.562840606
    159      0   4  0.400000    20.155791046    28.262594089    25.730168843
    160      0   4  0.400000    24.588249754    19.898591378    25.206354017
    161      0   4  0.400000    19.276232990    19.074777983    25.480548573
    162      0   4  0.400000     8.375741988    14.728332116    25.117479056
    163      0   4  0.400000    11.447214837     3.827233259    25.785594184
    164      0   4  0.400000     2.975927046     7.156256832    25.239041690
    165      0   4  0.400000    25.217410196     5.150264274    25.168257872
    166      0   4  0.400000    20.319177410     3.611601597    25.768462282
    167      0   4  0.400000    27.137404518    13.853916621    25.448173212
    168      0   4  0.400000     3.009656999    18.641165033    25.841217628
    169      0   4  0.400000    11.151629605    13.847999366    25.632107317
    170      0   4  0.400000    16.509968836    14.743062590    25.306467033
    171      0   4  0.400000    32.177397458    21.115823613    25.251781369
    172      0   4  0.400000     3.294785543    28.906524901    25.783554365
    173      0   4  0.400000    16.914611918     0.190484901    25.327150109
    174      0   4  0.400000    33.543033757     0.025890379    25.076202515
    175      0   4  0.400000     8.407833838     4.928828363    25.072170105
    176      0   4  0.400000     8.470481020    19.708353686    25.018598602
    177      0   4  0.400000     8.653030912    30.005064572    24.955773331
    178      0   4  0.400000    16.970151439     9.914691734    25.268058702
    179      0   4  0.400000    17.086978954    25.097164457    24.857517074
    180      0   4  0.400000    23.992501035    10.154795715    25.252045063
    181      0   4  0.400000    20.320729954    33.173308813    25.639123207
    182      0   4  0.400000    28.101323501     4.030042296    25.612591378
    183      0   4  0.400000    27.733536841    23.915245847    25.718625352
    184      0   4  0.400000    33.397297974     9.579099483    25.063030099
    185      0   1 -0.550000     3.387686780     4.908217702    11.285711066
    186      0   1 -0.550000     9.658613115     5.013118400     3.109125666
    187      0   1 -0.550000     6.526276378     4.916442143     7.185768022
    188      0   1 -0.550000     2.496883780     8.841519480     6.940978733
    189      0   1 -0.550000     7.752043358     8.735397865    10.989921081
    190      0   1 -0.550000     5.335595753     8.840159905     3.080528624
    191      0   1 -0.550000     5.270759447     8.077971792    11.620324717
    192      0   1 -0.550000     2.970783553     8.002310780     3.509515708
    193      0   1 -0.550000     8.275355883     8.224868186     7.685691026
    194      0   1 -0.550000     3.258473393     5.611158891     8.720628180
    195      0   2 -0.675000     9.271744213     6.070109896     0.688513349
    196      0   1 -0.550000     6.340183552     5.559754189     4.659292228
    197      0   1 -0.550000     2.994709968     7.399460884    10.553241652
    198      0   1 -0.550000     5.947144334     7.428839748     6.540490891
    199      0   1 -0.550000     1.582554166     6.353586951     6.740250443
    200      0   1 -0.550000     6.932580520     6.207631560    10.701660524
    201      0   1 -0.550000     4.731397141     6.222164158     2.727715282
    202      0   1 -0.550000     7.172694257     5.507059501     2.276193819
    203      0   1 -0.550000     1.148664357     5.527133742    10.225961338
    204      0   1 -0.550000     4.119076478     5.553934191     6.177601403
    205      0   1 -0.550000     0.820294239     8.190086857     4.952024785
    206      0   1 -0.550000     6.046863301     7.988962747     9.077828161
    207      0   2 -0.675000     3.939072416     8.047512227     1.007957238
    208      0   3  1.100000     8.710879457     6.033621048     2.269103397
    209      0   3  1.100000     2.695340361     5.906659718    10.206582674
    210      0   3  1.100000     5.731668351     5.877071050     6.148323660
    211      0   3  1.100000     1.171156660     7.896677844     6.535357944
    212      0   3  1.100000     6.456291015     7.749537369    10.618907071
    213      0   3  1.100000     4.232170514     7.755566652     2.592763625
    214      0   3  1.100000     3.679581495     8.402955865    11.665366649
    215      0   3  1.100000     1.388568993     8.457950613     3.480676482
    216      0   3  1.100000     6.690808404     8.445683281     7.663758815
    217      0   3  1.100000     2.792315046     5.374103681     7.129988511
    218      0   3  1.100000     8.135197936     5.212361021    11.239621375
    219      0   3  1.100000     5.927512301     5.247943658     3.201253830
    220      0   4  0.400000     8.562820383     6.311584303     0.122901460
    221      0   4  0.400000     3.939860168     7.221288944     0.559559508
    222      0   1 -0.550000     2.750701899     4.966279024    23.366152236
    223      0   1 -0.550000     8.743749935     4.984017891    15.228527814
    224      0   1 -0.550000     5.691626687     4.902954933    19.272625984
    225      0   1 -0.550000     1.814681573     8.760420688    18.939060092
    226      0   1 -0.550000     7.266236319     8.751394940    22.908784931
    227      0   1 -0.550000     4.681591397     8.758643582    15.063676491
    228      0   1 -0.550000     4.879212243     8.211520153    23.562756316
    229      0   1 -0.550000     2.208825963     8.081526524    15.572896161
    230      0   1 -0.550000     7.664094286     7.958503183    19.559446605
    231      0   1 -0.550000     2.661936069     5.539924027    20.772328169
    232      0   1 -0.550000     8.476916146     5.646742048    12.698274624
    233      0   1 -0.550000     5.546453198     5.434291091    16.635722827
    234      0   1 -0.550000     2.627764000     7.437796427    22.536003194
    235      0   1 -0.550000     5.381907932     7.463551489    18.430102849
    236      0   1 -0.550000     0.984513112     6.236592373    18.782065986
    237      0   1 -0.550000     6.403588355     6.265100340    22.727108978
    238      0   1 -0.550000     3.970642794     6.233978645    14.761601903
    239      0   1 -0.550000     6.343724205     5.485974667    14.170153636
    240      0   1 -0.550000     0.533471629     5.825143394    22.135070493
    241      0   1 -0.550000     3.431935433     5.696508821    18.228131199
    242      0   1 -0.550000     0.175735014     8.015867579    17.047656022
    243      0   1 -0.550000     5.611586557     8.129550985    21.056399642
    244      0   1 -0.550000     3.112675215     8.140633752    13.151845022
    245      0   3  1.100000     7.920012357     5.869124963    14.141281729
    246      0   3  1.100000     2.120625027     5.921053138    22.221685240
    247      0   3  1.100000     5.037900593     5.867417446    18.148323959
    248      0   3  1.100000     0.614629300     7.793205790    18.569355293
    249      0   3  1.100000     6.066685662     7.801883595    22.587070228
    250      0   3  1.100000     3.500880268     7.793797812    14.661106788
    251      0   3  1.100000     3.360621625     8.452409489    23.596932382
    252      0   3  1.100000     0.657778002     8.348205196    15.612766611
    253      0   3  1.100000     6.119538497     8.474156453    19.544126300
    254      0   3  1.100000     2.251005993     5.299313566    19.217369866
    255      0   3  1.100000     7.612606197     5.312905679    23.132952684
    256      0   3  1.100000     5.125752853     5.199988786    15.132222760
    257      0   1 -0.550000     3.409777292     9.950159757    11.288395826
    258      0   1 -0.550000     9.483416116     9.981281452     3.199453421
    259      0   1 -0.550000     6.371024939     9.951379116     7.308261199
    260      0   1 -0.550000     2.412354651    13.898794921     7.184655388
    261      0   1 -0.550000     7.866889259    13.848854176    11.112675710
    262      0   1 -0.550000     5.276078756    13.874573925     3.433021494
    263      0   1 -0.550000     5.446176983    13.046413198    11.716171255
    264      0   1 -0.550000     2.774829210    12.966430940     3.769454578
    265      0   1 -0.550000     8.210950085    13.172991791     7.643594331
    266      0   1 -0.550000     3.299153670    10.544924389     8.742756968
    267      0   2 -0.675000     9.165191205    10.848056595     0.695387622
    268      0   1 -0.550000     6.265315914    10.663834731     4.778197269
    269      0   1 -0.550000     3.242956727    12.369470631    10.611443983
    270      0   1 -0.550000     5.921455486    12.506015978     6.668103356
    271      0   1 -0.550000     1.628839617    11.316939559     6.927492006
    272      0   1 -0.550000     7.034955754    11.294983828    10.616354012
    273      0   1 -0.550000     4.636091139    11.379253576     2.896599599
    274      0   1 -0.550000     7.067889633    10.552486699     2.347928485
    275      0   1 -0.550000     1.033835860    10.800345803    10.321873239
    276      0   1 -0.550000     4.150577239    10.707189484     6.250580161
    277      0   1 -0.550000     0.705332475    13.173514225     5.322207124
    278      0   1 -0.550000     6.119351649    13.309397960     9.217736185
    279      0   2 -0.675000     3.716788872    13.459082055     1.434246756
    280      0   3  1.100000     8.652180026    10.942537176     2.259374798
    281      0   3  1.100000     2.696340859    10.898485498    10.236894518
    282      0   3  1.100000     5.703082933    10.963134370     6.254167809
    283      0   3  1.100000     1.244405823    12.858740985     6.816521740
    284      0   3  1.100000     6.704894189    12.876968011    10.683984224
    285      0   3  1.100000     4.127251519    12.906347914     2.895054545
    286      0   3  1.100000     3.883444345    13.342854510    11.697643285
    287      0   3  1.100000     1.188143241    13.333096523     3.812814876
    288      0   3  1.100000     6.668987161    13.476542568     7.696428117
    289      0   3  1.100000     2.867666647    10.351292481     7.219812386
    290      0   3  1.100000     8.208246951    10.260087760    11.109206594
    291      0   3  1.100000     5.825660936    10.378929552     3.270415682
    292      0   4  0.400000     3.790334473    12.749191768     0.824540637
    293      0   4  0.400000     9.398852520    11.714880269     0.420560750
    294      0   1 -0.550000     2.889625882     9.955631293    23.291583791
    295      0   1 -0.550000     8.718721828     9.877948575    15.201620699
    296      0   1 -0.550000     5.892853284    10.036135984    19.189414016
    297      0   1 -0.550000     1.697683011    13.767268264    19.128201084
    298      0   1 -0.550000     7.191418781    13.653305985    23.026432466
    299      0   1 -0.550000     4.778169478    13.725830835    15.175039423
    300      0   1 -0.550000     4.659362803    12.916141214    23.601449257
    301      0   1 -0.550000     2.332931441    12.982706370    15.662916612
    302      0   1 -0.550000     7.599731750    13.095378663    19.616339726
    303      0   1 -0.550000     2.767555213    10.438036261    20.765651388
    304      0   1 -0.550000     8.584437081    10.692587297    12.628419144
    305      0   1 -0.550000     5.607111481    10.637940492    16.634085825
    306      0   1 -0.550000     2.404312877    12.400104167    22.458357811
    307      0   1 -0.550000     5.267242166    12.438718584    18.525164056
    308      0   1 -0.550000     1.020887072    11.211759987    18.879876340
    309      0   1 -0.550000     6.426734313    11.233785306    22.540324956
    310      0   1 -0.550000     4.091878057    11.298085196    14.769392782
    311      0   1 -0.550000     6.429280560    10.529380160    14.152083207
    312      0   1 -0.550000     0.542215542    10.501813716    22.245582730
    313      0   1 -0.550000     3.506620699    10.575349159    18.253466676
    314      0   1 -0.550000     0.220520713    12.981730051    17.089359563
    315      0   1 -0.550000     5.448826599    13.273432066    21.140331579
    316      0   1 -0.550000     3.227171538    13.088130021    13.130894719
    317      0   3  1.100000     8.055575075    10.868653790    14.114569727
    318      0   3  1.100000     2.130970134    10.829063055    22.173566369
    319      0   3  1.100000     5.014731171    10.938633981    18.151203833
    320      0   3  1.100000     0.569779951    12.715330253    18.653942811
    321      0   3  1.100000     5.909705480    12.774367373    22.589491585
    322      0   3  1.100000     3.584440725    12.780815227    14.690633301
    323      0   3  1.100000     3.056512086    13.310478142    23.582726174
    324      0   3  1.100000     0.737067945    13.244087478    15.593061132
    325      0   3  1.100000     5.999246297    13.464379099    19.579480851
    326      0   3  1.100000     2.237756857    10.249527945    19.264768767
    327      0   3  1.100000     7.595366756    10.289781330    23.108532289
    328      0   3  1.100000     5.241643322    10.289815605    15.152257005
    329      0   1 -0.550000     3.541059302    14.899293436    11.309149065
    330      0   1 -0.550000     9.447342007    14.963732503     3.014332740
    331      0   1 -0.550000     6.433732203    15.047688582     7.226424780
    332      0   1 -0.550000     2.472722655    18.831061147     7.320962106
    333      0   1 -0.550000     7.745826298    18.784675655    11.143381684
    334      0   1 -0.550000     5.447027928    18.857095602     3.136721044
    335      0   1 -0.550000     5.365672967    18.000983098    11.663010654
    336      0   1 -0.550000     3.019370348    18.074624482     3.895384433
    337      0   1 -0.550000     8.241284013    18.079990077     7.603461453
    338      0   1 -0.550000     3.269118848    15.661063498     8.773592692
    339      0   2 -0.675000     9.081997233    15.862536070     0.590684032
    340      0   1 -0.550000     6.187488304    15.785306198     4.806624318
    341      0   1 -0.550000     3.013164477    17.398029858    10.690923433
    342      0   1 -0.550000     5.879982070    17.584446360     6.668430658
    343      0   1 -0.550000     1.560328397    16.399169273     6.975284549
    344      0   1 -0.550000     7.007287915    16.300436516    10.607647076
    345      0   1 -0.550000     4.642933509    16.329572339     2.781904130
    346      0   1 -0.550000     7.069721559    15.535774891     2.238228163
    347      0   1 -0.550000     1.174860291    15.392746377    10.381843298
    348      0   1 -0.550000     4.049431493    15.718044118     6.270024188
    349      0   1 -0.550000     0.829105780    18.277979063     5.341238974
    350      0   1 -0.550000     6.205298357    18.282509594     9.116847917
    351      0   2 -0.675000     3.752096695    18.361063727     1.282973741
    352      0   3  1.100000     8.604659865    15.974058593     2.101855837
    353      0   3  1.100000     2.760046508    15.835561649    10.289924393
    354      0   3  1.100000     5.636397795    16.074290102     6.194446520
    355      0   3  1.100000     1.138120344    17.929015996     6.830466983
    356      0   3  1.100000     6.570876598    17.807597348    10.622704954
    357      0   3  1.100000     4.219756783    17.889880184     2.855209947
    358      0   3  1.100000     3.753465169    18.362945736    11.710998799
    359      0   3  1.100000     1.417468062    18.381032547     3.890723174
    360      0   3  1.100000     6.712539518    18.501965114     7.600908394
    361      0   3  1.100000     2.828323019    15.373334267     7.294905198
    362      0   3  1.100000     8.274654988    15.367409886    11.095981807
    363      0   3  1.100000     5.806218982    15.362565686     3.299156619
    364      0   4  0.400000     3.717833526    17.584384144     0.754165930
    365      0   4  0.400000     8.321432106    15.831029152     0.041924573
    366      0   1 -0.550000     2.862461274    14.937699086    23.293154454
    367      0   1 -0.550000     8.797410328    14.888628719    15.251835087
    368      0   1 -0.550000     5.816093428    14.975616578    19.176386293
    369      0   1 -0.550000     1.780509504    18.713196712    19.089902272
    370      0   1 -0.550000     7.261874806    18.756829818    23.091574982
    371      0   1 -0.550000     4.733110072    18.732747999    15.187806669
    372      0   1 -0.550000     4.780001543    17.986172146    23.687802552
    373      0   1 -0.550000     2.262852841    18.003737562    15.698007760
    374      0   1 -0.550000     7.729367812    17.914379535    19.733398018
    375      0   1 -0.550000     2.661568093    15.698458555    20.769776086
    376      0   1 -0.550000     8.696496805    15.689396455    12.629008387
    377      0   1 -0.550000     5.697499887    15.644369498    16.673040218
    378      0   1 -0.550000     2.355089582    17.502059660    22.676041944