LAMMPS 2005 data file for silica_Q2_Q3_0pct_ioP

   2256 atoms
   2848 bonds
   5456 angles
   8064 dihedrals
   2688 impropers

   4 atom types
   3 bond types
   5 angle types
   4 dihedral types
   3 improper types

     0.000000000    33.407100000 xlo xhi
     0.000000000    34.870300000 ylo yhi
     0.000000000    66.249200000 zlo zhi

Masses

   1  15.999400
   2  15.999400
   3  28.086000
   4   1.008000

Pair Coeffs

   1   0.0400000000   3.6000000000 
   2   0.1200000000   3.6000000000 
   3   0.0800000000   4.2000000000 
   4   0.0130000000   1.0980000000 

Bond Coeffs

  1     1.6800   285.0000     0.0000     0.0000 
  2     1.6800   285.0000     0.0000     0.0000 
  3     0.9450   495.0000     0.0000     0.0000 

Angle Coeffs

  1   149.0000   100.0000     0.0000     0.0000 
  2   115.0000    50.0000     0.0000     0.0000 
  3   109.5000   100.0000     0.0000     0.0000 
  4   109.5000   100.0000     0.0000     0.0000 
  5   109.5000   100.0000     0.0000     0.0000 

Atoms

      1      0   1 -0.550000     3.453793081     0.817739914    11.134171573
      2      0   1 -0.550000     9.242074600     0.615516614     3.361517470
      3      0   1 -0.550000     6.463371737     0.853004277     7.343458686
      4      0   1 -0.550000     2.081522942     4.850040455     7.470657131
      5      0   1 -0.550000     7.719545758     4.736014566    11.066266721
      6      0   1 -0.550000     4.952034536     4.811857064     2.937973222
      7      0   1 -0.550000     5.245549576     3.999832708    11.731871686
      8      0   1 -0.550000     2.625694412     3.823633128     3.810567746
      9      0   1 -0.550000     8.290573411     3.913423982     7.748904039
     10      0   1 -0.550000     3.196985902     1.745129448     8.699447086
     11      0   2 -0.675000     9.140149112     1.005174781     0.815282529
     12      0   1 -0.550000     6.219633670     1.538889124     4.816098263
     13      0   1 -0.550000     2.927133505     3.322243402    10.660688591
     14      0   1 -0.550000     5.981240532     3.315157768     6.667452193
     15      0   1 -0.550000     1.580974337     2.405855527     6.613167602
     16      0   1 -0.550000     6.951616479     2.120487354    10.859767302
     17      0   1 -0.550000     4.538053774     2.152146158     2.988190097
     18      0   1 -0.550000     7.090723987     1.540590840     2.324777187
     19      0   1 -0.550000     1.034587823     1.303490220    10.229803845
     20      0   1 -0.550000     4.072793167     1.442385585     6.253606347
     21      0   1 -0.550000     0.687645035     4.444324323     5.447479819
     22      0   1 -0.550000     6.056707208     4.024346512     9.260644862
     23      0   2 -0.675000     3.322810490     3.590071688     1.227147147
     24      0   3  1.100000     8.645089425     1.523110319     2.221309061
     25      0   3  1.100000     2.638369263     1.845733733    10.186013083
     26      0   3  1.100000     5.701322526     1.816428753     6.269605735
     27      0   3  1.100000     1.021067948     3.912691855     6.834731046
     28      0   3  1.100000     6.510375441     3.743884738    10.733297403
     29      0   3  1.100000     3.867205848     3.616712768     2.795298845
     30      0   3  1.100000     3.643144503     4.344490747    11.749097165
     31      0   3  1.100000     1.113485307     4.407710668     3.882176535
     32      0   3  1.100000     6.679782820     4.239600865     7.806938472
     33      0   3  1.100000     2.734852254     1.430058925     7.181479562
     34      0   3  1.100000     8.190218497     1.139414913    11.211153637
     35      0   3  1.100000     5.789851097     1.211979984     3.308133936
     36      0   4  0.400000    10.070262931     1.136697022     0.754799785
     37      0   4  0.400000     3.623036537     4.348414032     0.763581359
     38      0   2 -0.675000     3.449049252     3.879808984    25.287120831
     39      0   2 -0.675000     8.100620641     6.458293604     0.596529676
     40      0   2 -0.675000     8.750956530    16.282511973     0.694795125
     41      0   2 -0.675000     3.528825423    18.686469892    25.238626109
     42      0   2 -0.675000     8.461918246    26.168625004     0.716465242
     43      0   2 -0.675000     3.209055921    33.647327840    25.402527292
     44      0   2 -0.675000    16.934425792     0.914874647     0.879584014
     45      0   2 -0.675000    11.433212245     3.714419329    25.289705294
     46      0   2 -0.675000    16.321907122    11.904511449     0.987649669
     47      0   2 -0.675000    11.915310097    18.120036940    24.742553258
     48      0   2 -0.675000    16.777880189    26.254058945     0.802940310
     49      0   2 -0.675000    11.605760273    33.877751108    25.388548681
     50      0   2 -0.675000    24.839449056     6.037966617     0.613872384
     51      0   2 -0.675000    20.006676551     9.043751623    25.235512512
     52      0   2 -0.675000    25.227539500    16.214723919     0.440308739
     53      0   2 -0.675000    20.680966796    19.172912316    24.926062009
     54      0   2 -0.675000    25.362169753    25.952534602     0.701890430
     55      0   2 -0.675000    19.952356115    28.765800182    25.164030083
     56      0   2 -0.675000     0.068660719     6.704442807     0.758937611
     57      0   2 -0.675000    28.124469458     8.663491086    25.267842985
     58      0   2 -0.675000    -0.177391228    16.299773350     0.863134344
     59      0   2 -0.675000    28.291269835    19.249172059    25.186091806
     60      0   2 -0.675000     0.376978858    26.480784682     0.443166068
     61      0   2 -0.675000    28.672412918    29.259739510    25.105398894
     62      0   4  0.400000     4.284596674     4.071094702    24.895680652
     63      0   4  0.400000     4.404090603    18.823139587    24.914383530
     64      0   4  0.400000     3.990048138    33.202445494    25.112605533
     65      0   4  0.400000    12.354118810     3.724682317    25.077766719
     66      0   4  0.400000    11.528950546    17.298990280    25.002905446
     67      0   4  0.400000    12.433854416    34.276318678    25.170530460
     68      0   4  0.400000    19.523878580     8.833226011    26.009905535
     69      0   4  0.400000    21.259868809    18.585627302    24.466636704
     70      0   4  0.400000    20.798676382    28.711033013    24.739934519
     71      0   4  0.400000    29.028192273     8.640544933    24.990135044
     72      0   4  0.400000    29.184817227    19.386719353    24.910319325
     73      0   4  0.400000    29.013283793    28.382413735    25.055250066
     74      0   4  0.400000     7.313550481     6.035344693     0.895364569
     75      0   4  0.400000     7.649916258    26.064293455     1.193682215
     76      0   4  0.400000    16.060282376     1.151259910     1.161520640
     77      0   4  0.400000    15.720440728    11.221499623     1.253148143
     78      0   4  0.400000    15.958230701    26.231555408     1.276379819
     79      0   4  0.400000    23.997823985     6.253169515     0.989461007
     80      0   4  0.400000    24.323302059    16.178278873     0.722090806
     81      0   4  0.400000    24.481935826    25.871953242     1.034558029
     82      0   4  0.400000    -0.790029863     6.653847560     1.154942428
     83      0   4  0.400000    -0.756831839    15.810131183     1.414151800
     84      0   4  0.400000    -0.491826205    26.754943430     0.682742616
     85      0   4  0.400000     7.895924834    16.265035735     1.093394561
     86      0   1 -0.550000     2.604925258     0.504248934    23.420482732
     87      0   1 -0.550000     8.711736498     0.742608370    15.266399881
     88      0   1 -0.550000     5.911018724     0.830289745    19.102162197
     89      0   1 -0.550000     1.769493927     4.635483416    19.047904260
     90      0   1 -0.550000     7.364729070     4.755123149    22.644241408
     91      0   1 -0.550000     4.716848753     4.674921660    15.250168503
     92      0   2 -0.675000     5.011231964     4.459039621    23.387557971
     93      0   1 -0.550000     2.212114632     3.927685922    15.670982924
     94      0   1 -0.550000     7.660047656     4.120449044    19.594460033
     95      0   1 -0.550000     2.725364596     1.372083537    20.818877723
     96      0   1 -0.550000     8.721658739     1.338492961    12.700170827
     97      0   1 -0.550000     5.556602769     1.470651479    16.651802595
     98      0   1 -0.550000     2.480069646     3.059875676    22.892543388
     99      0   1 -0.550000     5.404467217     3.300969093    18.446162590
    100      0   1 -0.550000     1.001431300     2.150887278    18.990597880
    101      0   1 -0.550000     6.491801356     2.243537794    22.858226689
    102      0   1 -0.550000     3.976146398     2.203548505    14.800601186
    103      0   1 -0.550000     6.511077345     1.712888423    14.180774196
    104      0   1 -0.550000     0.485244817     1.489073400    22.207194622
    105      0   1 -0.550000     3.411265884     1.533254106    18.283057083
    106      0   1 -0.550000     0.130757396     3.845566300    17.152116414
    107      0   1 -0.550000     5.597560139     3.913982041    20.977742263
    108      0   1 -0.550000     3.080338341     4.124040574    13.273093458
    109      0   3  1.100000     8.122902872     1.766093551    14.130490686
    110      0   3  1.100000     2.065293766     1.616726527    22.293915315
    111      0   3  1.100000     5.051688044     1.817345861    18.151618656
    112      0   3  1.100000     0.505045212     3.688510637    18.691483256
    113      0   3  1.100000     6.082296853     3.796573764    22.462387188
    114      0   3  1.100000     3.478213631     3.772234288    14.711297017
    115      0   3  1.100000     2.304638831     4.045198899    24.068069506
    116      0   3  1.100000     0.649397278     4.299787055    15.690261758
    117      0   3  1.100000     6.101706752     4.257698551    19.573790249
    118      0   3  1.100000     2.208279545     1.174874519    19.280967974
    119      0   3  1.100000     7.764411391     1.257677555    23.000265561
    120      0   3  1.100000     5.204091415     1.262667480    15.102830394
    121      0   4  0.400000     4.653781417     5.197207511    22.920218303
    122      0   2 -0.675000     8.464055819     1.409203031    24.541818042
    123      0   2 -0.675000     0.896312520     3.846856746    24.710289914
    124      0   2 -0.675000     8.206053162     6.485038865    24.456819008
    125      0   2 -0.675000     2.650866647     9.375647051    25.229020750
    126      0   2 -0.675000     8.239694298    11.715304524    24.774948885
    127      0   2 -0.675000     2.525085617    14.464932678    25.110036713
    128      0   2 -0.675000     8.044429455    16.557220389    24.926393704
    129      0   2 -0.675000     1.039966353    18.771868500    24.645032706
    130      0   2 -0.675000     8.257299655    21.295781034    24.559107688
    131      0   2 -0.675000     3.237779494    23.914470060    25.282350729
    132      0   2 -0.675000     8.015599601    26.082322278    24.825232396
    133      0   2 -0.675000     2.587199432    29.954424177    25.079959008
    134      0   2 -0.675000     7.565104375    31.637544521    24.794822995
    135      0   2 -0.675000     0.779317491    33.720208052    24.671335396
    136      0   2 -0.675000    16.796723088     1.262803488    24.743878067
    137      0   2 -0.675000     9.092577911     4.004609983    24.278344926
    138      0   2 -0.675000    16.892934775     6.488002709    24.815095929
    139      0   2 -0.675000    11.060088794     8.954274093    24.979857941
    140      0   2 -0.675000    16.322708587    11.501619907    24.764480722
    141      0   2 -0.675000    10.996013379    14.189840792    25.478580410
    142      0   2 -0.675000    16.822845881    16.421435397    24.895390015
    143      0   2 -0.675000     9.440211776    18.956890503    24.943021933
    144      0   2 -0.675000    16.864639563    21.634858483    24.562420697
    145      0   2 -0.675000    10.828510102    23.491773141    25.080158420
    146      0   2 -0.675000    16.595311354    26.768396003    24.925996854
    147      0   2 -0.675000    11.336666033    28.097197755    25.127592900
    148      0   2 -0.675000    16.249413831    31.361719987    24.932753183
    149      0   2 -0.675000     9.177431689    33.843265767    24.633970255
    150      0   2 -0.675000    25.232917780     1.642746805    24.639269491
    151      0   2 -0.675000    19.335193923     4.529233460    25.210736017
    152      0   2 -0.675000    25.029401329     6.611513522    24.885782682
    153      0   2 -0.675000    17.522024364     9.233097803    24.663980831
    154      0   2 -0.675000    24.692724142    11.557865390    24.612372512
    155      0   2 -0.675000    19.702605564    13.616224780    25.125604699
    156      0   2 -0.675000    24.981695720    16.720622544    24.554669281
    157      0   2 -0.675000    18.150677876    19.470250698    24.946402072
    158      0   2 -0.675000    24.764883903    21.370263717    24.632645446
    159      0   2 -0.675000    19.380227317    24.004017218    24.950111932
    160      0   2 -0.675000    25.028365895    26.160710335    24.792173377
    161      0   2 -0.675000    17.462526761    29.183791532    24.853851034
    162      0   2 -0.675000    24.937697760    31.456637813    24.728375235
    163      0   2 -0.675000    19.233235580    34.364122865    25.291162387
    164      0   2 -0.675000    27.281807765     3.677282429    24.854976431
    165      0   2 -0.675000    25.683311454     9.129916133    24.472256685
    166      0   2 -0.675000    28.004470677    14.212960229    25.147599293
    167      0   2 -0.675000    25.861939668    19.055364525    24.360824651
    168      0   2 -0.675000    27.408387523    23.691824284    25.140511268
    169      0   2 -0.675000    26.118004371    29.101809866    24.586867471
    170      0   2 -0.675000    27.936687614    34.075012996    25.079893853
    171      0   2 -0.675000    33.024756213     1.145716069    24.639998037
    172      0   2 -0.675000    32.972908870     6.203600488    24.837554501
    173      0   2 -0.675000    33.683696747    10.915555127    24.663052872
    174      0   2 -0.675000    33.811486263    16.111962092    24.629000740
    175      0   2 -0.675000    32.892563210    21.209999995    24.540890083
    176      0   2 -0.675000    32.954533907    26.399118938    24.842257474
    177      0   2 -0.675000    33.012060205    31.493808488    24.647220319
    178      0   4  0.400000    28.671675733    34.192204042    25.653039920
    179      0   4  0.400000     9.218142056    34.341812154    25.430990361
    180      0   4  0.400000    33.091330120    32.434915187    24.638201255
    181      0   4  0.400000    16.601442809    30.505445281    25.147985870
    182      0   4  0.400000    25.768950620    29.955989140    24.806139531
    183      0   4  0.400000     8.770580323    26.582112608    25.061092861
    184      0   4  0.400000    24.997486721    27.036149518    25.143373983
    185      0   4  0.400000    25.222535007    17.636775242    24.630705739
    186      0   4  0.400000    25.424006878    10.026809695    24.670953936
    187      0   4  0.400000    25.821475739     2.382132697    24.600780961
    188      0   4  0.400000    17.162547767    20.809602132    24.914776011
    189      0   4  0.400000    34.311322493    15.344304063    24.872725154
    190      0   4  0.400000    33.492268333     5.451674278    25.080646688
    191      0   4  0.400000     2.332844646    24.132566008    25.402158105
    192      0   4  0.400000    17.114025224    10.067520444    24.862856838
    193      0   4  0.400000     9.106373834    19.842132035    25.019227596
    194      0   4  0.400000    10.163496035     8.675589079    24.920002460
    195      0   4  0.400000    17.018775309     7.417966169    24.948398375
    196      0   4  0.400000    18.555178034    23.575759623    24.811486800
    197      0   4  0.400000     8.374728932    12.644814283    24.712198930
    198      0   4  0.400000     0.923188934     3.077007037    25.256257267
    199      0   4  0.400000    10.777265841    22.555918495    25.131716348
    200      0   4  0.400000    17.328494969    28.249681396    24.995148981
    201      0   4  0.400000    23.994073928    21.481186780    25.211647154
    202      0   4  0.400000     8.121034755    17.492580671    25.023173598
    203      0   4  0.400000     1.716505610     9.493836742    25.291044581
    204      0   4  0.400000    25.406408892     7.488686225    24.862041752
    205      0   4  0.400000    28.654322139    14.499899949    25.760964898
    206      0   4  0.400000     1.036646277    17.898876519    25.017727094
    207      0   4  0.400000    17.044838388    17.321107395    25.050983531
    208      0   4  0.400000    33.279152386    20.412084454    24.875110205
    209      0   4  0.400000    17.340414997     0.514151032    24.944080498
    210      0   4  0.400000    33.061481791     0.248383950    24.918176042
    211      0   4  0.400000     8.555904885     5.649899851    24.726711879
    212      0   4  0.400000     8.120911266    32.405324304    24.777773872
    213      0   4  0.400000    19.913193652    34.307365964    25.943067682
    214      0   4  0.400000    33.372854257    11.702630421    25.073772135
    215      0   4  0.400000    26.562795742    24.082609233    25.245617829
    216      0   4  0.400000     9.128270894     3.373195557    24.987284911
    217      0   4  0.400000    18.500703448     4.966874132    25.226852521
    218      0   4  0.400000     3.373395849    30.301833153    25.485560575
    219      0   4  0.400000    20.482296375    13.585291888    25.620265893
    220      0   4  0.400000     3.294965401    14.652574889    25.651500440
    221      0   4  0.400000     7.925442802    22.146419132    24.831790142
    222      0   4  0.400000     1.032591198    33.442270784    25.541233486
    223      0   4  0.400000    15.797326975    12.197492633    25.145627224
    224      0   4  0.400000    12.003259840    28.319831839    25.734884451
    225      0   4  0.400000    23.966817327    12.022643654    24.987938293
    226      0   4  0.400000    18.538803789    19.175361355    25.760591489
    227      0   4  0.400000    24.783504231    32.355621575    24.998669172
    228      0   4  0.400000     7.749331735     1.281035465    25.145993990
    229      0   4  0.400000    11.777585677    13.955256029    25.975367625
    230      0   4  0.400000    16.117698149    26.194228045    25.503448421
    231      0   4  0.400000    27.094499527     4.406120041    25.407676552
    232      0   4  0.400000    25.883757972    19.721441555    25.016469890
    233      0   4  0.400000    32.341997509    25.922941144    25.376345318
    234      0   1 -0.550000     3.443837736     5.864766215    11.275614183
    235      0   1 -0.550000     8.780755112     5.480216314     2.922636485
    236      0   1 -0.550000     6.311570212     5.793246855     7.425938905
    237      0   1 -0.550000     2.338677464     9.578348196     6.770933398
    238      0   1 -0.550000     7.572453962     9.680378415    11.171735140
    239      0   1 -0.550000     5.341494440     9.708380088     3.252762942
    240      0   1 -0.550000     5.071632087     8.919229654    11.741544174
    241      0   1 -0.550000     2.792790236     9.484930998     3.695181522
    242      0   1 -0.550000     8.088092891     8.906536670     7.795013216
    243      0   1 -0.550000     3.033157667     6.847027389     8.855332286
    244      0   2 -0.675000    10.564761287     6.547875056     1.337955647
    245      0   1 -0.550000     5.906141235     6.357622680     4.952743624
    246      0   1 -0.550000     2.645768879     8.342475209    10.935225145
    247      0   1 -0.550000     5.776321267     8.308197711     6.701636609
    248      0   1 -0.550000     1.449884843     7.146005653     6.741386308
    249      0   1 -0.550000     6.945336177     7.148062781    10.973981237
    250      0   1 -0.550000     4.107503089     7.314812770     3.303966760
    251      0   2 -0.675000     6.263931309     6.748588700     2.425701323
    252      0   1 -0.550000     1.011196172     6.311803130    10.392578644
    253      0   1 -0.550000     3.908229924     6.490722857     6.409755620
    254      0   1 -0.550000     0.594192057     8.842585401     4.946231625
    255      0   1 -0.550000     5.949403440     8.914731927     9.225797055
    256      0   2 -0.675000     3.714401745     8.922890811     1.340373646
    257      0   3  1.100000     9.021586995     6.658797846     1.885902742
    258      0   3  1.100000     2.535989777     6.840751044    10.401787152
    259      0   3  1.100000     5.493831105     6.726968852     6.380659181
    260      0   3  1.100000     1.004488007     8.671371980     6.488738224
    261      0   3  1.100000     6.416835969     8.648880749    10.811869830
    262      0   3  1.100000     3.999364502     8.875432938     2.926194071
    263      0   3  1.100000     3.482757094     9.263364967    11.849066935
    264      0   3  1.100000     1.240068176     9.424500592     3.647276893
    265      0   3  1.100000     6.520431093     9.246522395     7.739099268
    266      0   3  1.100000     2.641001654     6.340431970     7.331931268
    267      0   3  1.100000     8.175519323     6.208656793    11.341333396
    268      0   3  1.100000     5.221262686     6.257824177     3.503078789
    269      0   4  0.400000    10.483786509     6.712498842     0.413978682
    270      0   4  0.400000     3.361050531     8.100110573     1.029297900
    271      0   4  0.400000     6.897197304     7.305376447     2.852242466
    272      0   1 -0.550000     2.505041515     5.567357167    23.459107528
    273      0   1 -0.550000     8.870653641     5.764722976    15.244669855
    274      0   1 -0.550000     5.771544334     5.809705957    19.285009530
    275      0   1 -0.550000     1.761997364     9.661339979    19.263942895
    276      0   1 -0.550000     6.982484844     9.711797030    23.492032290
    277      0   1 -0.550000     4.666838309     9.702695577    15.174512235
    278      0   1 -0.550000     4.563042569     8.631968549    23.550199499
    279      0   1 -0.550000     2.297830607     8.911698456    15.861449390
    280      0   1 -0.550000     7.742830567     8.929342264    19.736631189
    281      0   1 -0.550000     2.654037165     6.452679240    20.888174513
    282      0   1 -0.550000     8.620802535     6.349009658    12.846316410
    283      0   1 -0.550000     5.616167576     6.636829341    16.880826728
    284      0   1 -0.550000     2.094732062     8.130394102    22.876047443
    285      0   1 -0.550000     5.368220075     8.364548155    18.759919216
    286      0   1 -0.550000     1.035750383     7.105381663    18.872806368
    287      0   1 -0.550000     6.583837956     7.297028667    22.485110328
    288      0   1 -0.550000     4.004041376     7.188024270    14.871620623
    289      0   1 -0.550000     6.544785187     6.539680839    14.393698247
    290      0   1 -0.550000     0.313549341     6.288614585    22.363543801
    291      0   1 -0.550000     3.457701594     6.617057739    18.308098144
    292      0   1 -0.550000     0.136334379     8.943395581    17.245395998
    293      0   1 -0.550000     5.614296827     9.357584440    21.252676654
    294      0   1 -0.550000     2.968544873     9.070218374    13.394263134
    295      0   3  1.100000     8.124172274     6.702106650    14.268421861
    296      0   3  1.100000     1.922992842     6.567472070    22.387194899
    297      0   3  1.100000     5.050284733     6.877120484    18.277027326
    298      0   3  1.100000     0.577528608     8.656447280    18.778865367
    299      0   3  1.100000     5.933902801     8.750702086    22.701216092
    300      0   3  1.100000     3.515495959     8.711542352    14.863869207
    301      0   3  1.100000     3.038606139     9.137867174    23.652687591
    302      0   3  1.100000     0.721920747     9.261412280    15.812557817
    303      0   3  1.100000     6.209611371     9.358176793    19.762799622
    304      0   3  1.100000     2.267947896     6.152968849    19.313495885
    305      0   3  1.100000     7.762807963     6.293984734    22.903740097
    306      0   3  1.100000     5.230249054     6.237877986    15.359810761
    307      0   1 -0.550000     3.307914186    10.775236036    11.323379371
    308      0   1 -0.550000     9.208466818    10.409132737     3.448847259
    309      0   1 -0.550000     6.241448463    10.827716440     7.321265174
    310      0   1 -0.550000     2.390050897    14.676455726     6.786899222
    311      0   1 -0.550000     7.743665385    14.607936064    11.020951738
    312      0   1 -0.550000     5.076342314    14.623452597     3.305364621
    313      0   1 -0.550000     5.256707368    14.030693187    11.587184183
    314      0   1 -0.550000     2.739619480    13.600742541     3.462759481
    315      0   1 -0.550000     8.318902474    14.141022585     7.616339229
    316      0   1 -0.550000     3.156680407    11.403250845     8.625645748
    317      0   2 -0.675000     9.399655637    10.933826621     0.941248777
    318      0   1 -0.550000     6.169890547    11.529864757     4.749875583
    319      0   1 -0.550000     2.924922008    13.183379916    10.519246968
    320      0   1 -0.550000     5.850719157    13.385731884     6.727606123
    321      0   1 -0.550000     1.516475166    12.134376659     6.684742826
    322      0   1 -0.550000     6.874813695    12.159064272    10.758472723
    323      0   1 -0.550000     4.699510219    12.147975838     2.610324364
    324      0   1 -0.550000     7.173673663    11.417303123     2.321882005
    325      0   1 -0.550000     1.003181830    11.431529989    10.191445590
    326      0   1 -0.550000     4.078405664    11.498062671     6.186568741
    327      0   1 -0.550000     0.658854818    13.952200170     5.028930506
    328      0   1 -0.550000     6.098499397    14.055311173     9.171340692
    329      0   2 -0.675000     3.704446400    14.137534976     1.114285045
    330      0   3  1.100000     8.748149907    11.453429386     2.375192734
    331      0   3  1.100000     2.592678270    11.649260274    10.163157660
    332      0   3  1.100000     5.619374931    11.862387871     6.230412811
    333      0   3  1.100000     1.144296797    13.677352499     6.545983892
    334      0   3  1.100000     6.507402552    13.683628324    10.647836364
    335      0   3  1.100000     4.058561680    13.619641721     2.592357753
    336      0   3  1.100000     3.628712651    14.132548818    11.615604396
    337      0   3  1.100000     1.205304740    14.094365947     3.496387615
    338      0   3  1.100000     6.656832536    14.350697907     7.744862483
    339      0   3  1.100000     2.760959864    11.152637690     7.095819111
    340      0   3  1.100000     8.017503703    11.230852198    11.236327969
    341      0   3  1.100000     5.850117809    11.197760446     3.243872309
    342      0   4  0.400000     3.837813267    13.406314566     0.531897974
    343      0   4  0.400000     8.829794249    11.214664284     0.237502066
    344      0   1 -0.550000     3.113281057    10.579055972    22.953624782
    345      0   1 -0.550000     8.603998643    10.827716440    15.449181073
    346      0   1 -0.550000     5.924815876    10.784476744    19.119254405
    347      0   1 -0.550000     1.896621270    14.649257367    19.085401685
    348      0   1 -0.550000     6.945202267    14.705328262    23.382853023
    349      0   1 -0.550000     4.875833100    14.580108979    14.794506275
    350      0   1 -0.550000     4.591772364    13.578425379    23.669977237
    351      0   1 -0.550000     2.368970864    14.166303591    15.539412214
    352      0   1 -0.550000     7.555750627    13.852889578    19.496874327
    353      0   1 -0.550000     2.756767354    11.717884897    20.557854813
    354      0   1 -0.550000     8.408667094    11.632383407    12.790004130
    355      0   1 -0.550000     5.638517011    11.600302812    16.700230188
    356      0   1 -0.550000     2.182228685    13.110395782    22.721686464
    357      0   1 -0.550000     5.141519868    13.249354539    18.598734780
    358      0   1 -0.550000     1.213609738    12.171721922    18.493729353
    359      0   1 -0.550000     6.667856916    12.224864307    22.619000934
    360      0   1 -0.550000     3.926837610    12.184101062    14.903950108
    361      0   1 -0.550000     6.265468031    11.471387037    14.223040736
    362      0   1 -0.550000     0.794865173    11.143188100    22.172481073
    363      0   1 -0.550000     3.589091886    11.138480452    18.153208032
    364      0   1 -0.550000     0.233294468    14.054230389    17.077784955
    365      0   1 -0.550000     5.467506203    14.132548818    21.213125874
    366      0   1 -0.550000     3.039261000    13.849681519    13.056790255
    367      0   3  1.100000     7.818965297    11.778245676    14.323474486
    368      0   3  1.100000     2.255981420    11.647621430    22.086291487
    369      0   3  1.100000     5.064549821    11.691244597    18.152412357
    370      0   3  1.100000     0.702160457    13.660160750    18.552492826
    371      0   3  1.100000     5.927287973    13.599173325    22.716851208
    372      0   3  1.100000     3.590628609    13.679653323    14.573233558
    373      0   3  1.100000     3.087347181    14.052311996    23.603464323
    374      0   3  1.100000     0.731628870    14.353870633    15.585852594
    375      0   3  1.100000     5.980104542    14.207764149    19.619832791
    376      0   3  1.100000     2.369261582    11.158217241    19.065193905