LAMMPS 2005 data file for silica_Q3_5pct_ioniz2

   2184 atoms
   2794 bonds
   5426 angles

   5 atom types
   3 bond types
   4 angle types

     0.000000000    33.388900000 xlo xhi
     0.000000000    34.858100000 ylo yhi
     0.000000000    66.533900000 zlo zhi

Masses

   1  15.999400
   2  15.999400
   3  28.086000
   4   1.008000
   5  22.989771

Pair Coeffs

   1   0.0400000000   3.6000000000 
   2   0.1200000000   3.6000000000 
   3   0.0800000000   4.2000000000 
   4   0.0130000000   1.0980000000 
   5   0.0800000000   3.3000000000 

Bond Coeffs

  1     1.6800   285.0000     0.0000     0.0000 
  2     1.6800   285.0000     0.0000     0.0000 
  3     0.9450   495.0000     0.0000     0.0000 

Angle Coeffs

  1   149.0000   100.0000     0.0000     0.0000 
  2   115.0000    50.0000     0.0000     0.0000 
  3   109.5000   100.0000     0.0000     0.0000 
  4   109.5000   100.0000     0.0000     0.0000 

Atoms

      1      0   1 -0.550000     3.883597384     0.269917905    10.917831411
      2      0   1 -0.550000     9.737740326     0.311816897     2.982206957
      3      0   1 -0.550000     6.765595316     0.305193175     7.051147021
      4      0   1 -0.550000     2.816221111     4.114139024     6.757932880
      5      0   1 -0.550000     8.234972591     4.112117418    10.754024972
      6      0   1 -0.550000     5.794278808     4.225788640     2.850669164
      7      0   1 -0.550000     5.782459405     3.426946516    11.178777401
      8      0   1 -0.550000     3.385403279     3.595450442     3.406986156
      9      0   1 -0.550000     8.782084178     3.446048933     7.296391697
     10      0   1 -0.550000     3.740359514     1.068203204     8.429796190
     11      0   2 -0.675000     9.594000942     1.009048874     0.392600977
     12      0   1 -0.550000     6.676345788     0.999950606     4.390197072
     13      0   1 -0.550000     3.392179684     2.737104935    10.324682210
     14      0   1 -0.550000     6.437816344     2.810863450     6.283478955
     15      0   1 -0.550000     2.101932337     1.587972192     6.493460365
     16      0   1 -0.550000     7.487729196     1.654097221    10.441049602
     17      0   1 -0.550000     4.996951713     1.757627167     2.396662043
     18      0   1 -0.550000     7.477579515     0.903567964     1.805880879
     19      0   1 -0.550000     1.611149489     1.015601955     9.920821243
     20      0   1 -0.550000     4.519522660     1.019890337     5.949678548
     21      0   1 -0.550000     1.190216347     3.452880426     4.879946816
     22      0   1 -0.550000     6.645027057     3.425271886     8.783956652
     23      0   2 -0.675000     4.161861834     3.715153242     0.898478352
     24      0   3  1.100000     9.058010221     1.242842592     1.856819187
     25      0   3  1.100000     3.114784922     1.293106423     9.915564669
     26      0   3  1.100000     6.120320393     1.295477084     5.894721964
     27      0   3  1.100000     1.568345697     3.152647946     6.395987691
     28      0   3  1.100000     7.018782093     3.162616773    10.264136427
     29      0   3  1.100000     4.562360285     3.310345730     2.372975733
     30      0   3  1.100000     4.173313062     3.759422895    11.240054862
     31      0   3  1.100000     1.797726497     3.821226298     3.470353060
     32      0   3  1.100000     7.243189549     3.763883727     7.298586728
     33      0   3  1.100000     3.299660366     0.726803084     6.955338962
     34      0   3  1.100000     8.666457421     0.620416294    10.901996253
     35      0   3  1.100000     6.240120460     0.688459044     2.819797447
     36      0   4  0.400000     4.535933137     3.086341109     0.310661612
     37      0   4  0.400000    10.305140369     1.604450357     0.254954702
     38      0   1 -0.550000     3.170478809     0.264409910    22.823007806
     39      0   1 -0.550000     9.291064807     0.255068550    14.929560373
     40      0   1 -0.550000     6.398049496     0.164889934    18.844014949
     41      0   1 -0.550000     2.161666195     4.085275551    18.836630761
     42      0   1 -0.550000     7.668630343     4.180403259    22.754545435
     43      0   1 -0.550000     5.178286709     4.204001829    14.799486429
     44      0   1 -0.550000     5.129637895     3.323138158    23.148758774
     45      0   1 -0.550000     2.733216622     3.393483005    15.308337110
     46      0   1 -0.550000     8.139079997     3.297168927    19.225121552
     47      0   1 -0.550000     3.201128855     0.759988183    20.285805471
     48      0   1 -0.550000     9.105888853     0.846923501    12.407192841
     49      0   1 -0.550000     6.126063918     1.177588122    16.401022483
     50      0   1 -0.550000     2.766304582     2.700015829    22.193464115
     51      0   1 -0.550000     5.693277541     2.690497864    18.412408747
     52      0   1 -0.550000     1.626007826     1.591352618    18.213273607
     53      0   1 -0.550000     6.958282034     1.718934073    22.038174080
     54      0   1 -0.550000     4.496853049     1.766654794    14.461293977
     55      0   1 -0.550000     6.958282034     1.124427970    13.940133672
     56      0   1 -0.550000     0.870182975     1.040629985    21.702976745
     57      0   1 -0.550000     4.047638120     0.699404392    17.840019149
     58      0   1 -0.550000     0.684574167     3.548600280    16.778004727
     59      0   1 -0.550000     6.081590404     3.733661435    20.755599665
     60      0   1 -0.550000     3.687772226     3.616817557    12.777321313
     61      0   3  1.100000     8.567794561     1.275957049    13.894225396
     62      0   3  1.100000     2.492048261     1.161028815    21.700381175
     63      0   3  1.100000     5.567132928     1.168105478    17.846140253
     64      0   3  1.100000     1.046910813     3.127306182    18.244011977
     65      0   3  1.100000     6.471471492     3.192874386    22.209965515
     66      0   3  1.100000     4.015083516     3.263948507    14.303874345
     67      0   3  1.100000     3.508106952     3.684966270    23.138911868
     68      0   3  1.100000     1.209815182     3.761130768    15.280592866
     69      0   3  1.100000     6.546597043     3.705496070    19.266305652
     70      0   3  1.100000     2.774052172     0.514760856    18.791786292
     71      0   3  1.100000     8.151534253     0.745625010    22.552614456
     72      0   3  1.100000     5.732775721     0.765668627    14.888774828
     73      0   2 -0.675000     8.649997026     1.027070885    24.093472867
     74      0   2 -0.675000     2.881397984     3.380200239    24.627674473
     75      0   2 -0.675000     8.648528308     5.949277906    24.268058158
     76      0   2 -0.675000     3.063767850     8.138087831    24.883230046
     77      0   2 -0.675000     8.315807834    11.099317709    24.390946200
     78      0   2 -0.675000     3.130845300    13.607219440    24.740249635
     79      0   2 -0.675000     8.362486416    15.652831882    24.455817603
     80      0   2 -0.675000     2.981529562    18.424977910    24.749099161
     81      0   2 -0.675000     8.477277318    20.870880154    24.454219414
     82      0   2 -0.675000     3.061664278    23.339007864    24.950697018
     83      0   2 -0.675000     8.269565092    26.073521207    24.394872272
     84      0   2 -0.675000     2.872448353    28.583618032    24.731267258
     85      0   2 -0.900000     8.415774231    30.851520980    24.416162291
     86      0   2 -0.675000     3.011313900    33.146195152    24.570520379
     87      0   2 -0.675000    16.909610378     0.727150060    24.214366147
     88      0   2 -0.675000    11.423379441     3.366152878    24.532197553
     89      0   2 -0.675000    16.905068893     5.932510829    24.125343452
     90      0   2 -0.675000    11.359806615     8.478721278    24.672850080
     91      0   2 -0.675000    16.759894623    10.626745860    24.365464405
     92      0   2 -0.675000    11.231761424    13.398140019    24.897070442
     93      0   2 -0.900000    16.614686521    16.246918288    24.446168983
     94      0   2 -0.675000    11.712995612    18.362540028    24.859146171
     95      0   2 -0.675000    17.007873221    20.801652073    24.470653397
     96      0   2 -0.675000    11.488287645    23.388750192    24.795472418
     97      0   2 -0.675000    16.954651080    25.805985565    24.118556106
     98      0   2 -0.675000    11.612159526    28.113173753    24.778973001
     99      0   2 -0.675000    16.746672176    31.019222912    24.371851213
    100      0   2 -0.675000    11.664179627    33.551664412    24.968128382
    101      0   2 -0.675000    25.016000862     1.063497203    24.192875859
    102      0   2 -0.675000    19.943145037     3.775142808    24.717095724
    103      0   2 -0.675000    24.833663834     6.083131951    24.174510566
    104      0   2 -0.675000    19.939913060     8.420857203    24.853290771
    105      0   2 -0.675000    25.363345334    10.886579451    24.130266905
    106      0   2 -0.675000    20.018360143    13.419438570    24.821287334
    107      0   2 -0.675000    25.126250777    15.743043741    24.432130301
    108      0   2 -0.675000    19.910807855    18.465897784    24.925679214
    109      0   2 -0.675000    25.411358798    20.623115690    24.348830153
    110      0   2 -0.675000    19.765071994    23.367556565    24.654288483
    111      0   2 -0.675000    25.294029979    25.902437810    24.290412975
    112      0   2 -0.675000    19.609800284    28.003544705    24.630601181
    113      0   2 -0.675000    25.014063965    30.837682428    24.310840448
    114      0   2 -0.675000    19.724661462    33.593807535    24.917029958
    115      0   2 -0.900000    28.143204638     3.611658617    24.862471435
    116      0   2 -0.675000    28.049582787     8.500715860    24.694473220
    117      0   2 -0.675000    28.112420258    13.633641610    24.602190695
    118      0   2 -0.675000    28.100667524    18.374820561    24.722019177
    119      0   2 -0.675000    28.373120784    23.580818405    24.966066203
    120      0   2 -0.675000    28.255458120    28.330862143    24.768725556
    121      0   2 -0.675000    28.418262983    33.373504353    24.901460504
    122      0   2 -0.675000    33.529969697     0.801155823    24.176574728
    123      0   2 -0.675000    33.600920942     5.649113990    24.196667096
    124      0   2 -0.675000    33.578116997    10.757535292    24.286887442
    125      0   2 -0.675000    33.657148185    15.642827734    24.182295292
    126      0   2 -0.675000    33.567766313    20.612376035    24.324944565
    127      0   2 -0.675000    33.567665811    25.786639018    24.451891531
    128      0   2 -0.675000    33.498985308    30.833185236    24.271450840
    129      0   4  0.400000    32.870606133    25.509096096    25.012339484
    130      0   4  0.400000    28.349915071    34.211610946    25.333890680
    131      0   4  0.400000    11.549291552    34.421209801    25.317238729
    132      0   4  0.400000    32.733476574    31.207056672    24.673303685
    133      0   4  0.400000    15.918638123    31.083910162    24.837089087
    134      0   4  0.400000    28.135967859    29.171177096    25.190452245
    135      0   4  0.400000    11.578395019    28.926795118    25.246206930
    136      0   4  0.400000     9.143241971    25.851217209    24.491810993
    137      0   4  0.400000    25.068532389    30.027368146    24.781826627
    138      0   4  0.400000    25.477239401    25.092649712    24.717511844
    139      0   4  0.400000    27.973468756    19.187375791    25.158560150
    140      0   4  0.400000    24.351904197    15.480026989    24.890783303
    141      0   4  0.400000    28.251046072     9.300289386    25.231006324
    142      0   4  0.400000    25.110701084     0.277538390    24.693198590
    143      0   4  0.400000    16.971804607    21.711081219    24.723694389
    144      0   4  0.400000    33.027164679    15.107229310    24.645348292
    145      0   4  0.400000    33.920985362     4.792939537    24.427412937
    146      0   4  0.400000     3.807523815    23.408940412    25.518845296
    147      0   4  0.400000     2.430711125    14.182552545    24.793999146
    148      0   4  0.400000    19.087422633     8.789611313    25.039059299
    149      0   4  0.400000    19.622555539    14.155517504    25.244621252
    150      0   4  0.400000    10.935321356    18.827375660    25.112435885
    151      0   4  0.400000    11.012901603     9.304233599    24.952645073
    152      0   4  0.400000     8.649152056     0.192865670    24.532556913
    153      0   4  0.400000    16.949461498     5.112761724    24.583648332
    154      0   4  0.400000    19.538514147    24.182383939    25.079888121
    155      0   4  0.400000     7.726131324    10.611502802    24.940139249
    156      0   4  0.400000     2.682631810     2.459475009    24.717895436
    157      0   4  0.400000     3.705975871    33.200395911    25.190156132
    158      0   4  0.400000    12.202721736    23.046971717    25.314917160
    159      0   4  0.400000    20.125022571    28.360783246    25.333323893
    160      0   4  0.400000    25.258195825    19.795256027    24.759720970
    161      0   4  0.400000    20.263277618    19.206203015    25.423043709
    162      0   4  0.400000     8.101276861    14.827219482    24.831928548
    163      0   4  0.400000    11.505446221     4.119290627    25.095930313
    164      0   4  0.400000     2.199790059     8.010402139    24.881911887
    165      0   4  0.400000    24.386811122     5.402280995    24.615227961
    166      0   4  0.400000    20.070248732     2.894406083    25.019213810
    167      0   4  0.400000    27.563563105    14.373591971    24.794449334
    168      0   4  0.400000     3.038298483    19.214901507    25.253126919
    169      0   4  0.400000    11.151701660    14.225006570    25.329259851
    170      0   4  0.400000    33.537085768    19.734043377    24.656916324
    171      0   4  0.400000     2.199901262    29.259706270    24.801836637
    172      0   4  0.400000    16.975498782    -0.135373084    24.572268862
    173      0   4  0.400000    32.768789443     0.916263445    24.712279999
    174      0   4  0.400000     8.547248910     5.118854812    24.752116947
    175      0   4  0.400000     7.982355435    20.290400532    25.003272757
    176      0   4  0.400000    17.378122474    26.628732676    24.194831934
    177      0   4  0.400000    24.633141798    10.749715217    24.701009774
    178      0   4  0.400000    20.492506388    33.396952451    25.413527433
    179      0   4  0.400000    16.561471758    11.534924807    24.642361656
    180      0   4  0.400000    28.432287321    24.457818615    25.358855999
    181      0   4  0.400000    32.804195032    10.943103732    24.793232675
    182      0   1 -0.550000     3.854716567     5.295794078    10.794876942
    183      0   1 -0.550000     9.851430684     5.283627039     2.855572788
    184      0   1 -0.550000     7.002021189     5.369413387     6.833448301
    185      0   1 -0.550000     2.818259008     9.082741190     6.837706503
    186      0   1 -0.550000     8.146793755     9.020590811    10.981105616
    187      0   1 -0.550000     5.913444023     9.110767349     2.532684086
    188      0   1 -0.550000     5.657283986     8.185110443    11.235064983
    189      0   1 -0.550000     3.366102964     8.345075003     3.306646260
    190      0   1 -0.550000     8.833469426     8.238792098     7.219877904
    191      0   1 -0.550000     3.600928769     5.993373032     8.248956943
    192      0   2 -0.675000     9.685453548     6.040572249     0.358322699
    193      0   1 -0.550000     6.693675871     6.171916427     4.298699761
    194      0   1 -0.550000     3.291413253     7.714142582    10.215499729
    195      0   1 -0.550000     6.340520707     7.757437792     6.422335998
    196      0   1 -0.550000     2.060463925     6.595512622     6.449414990
    197      0   1 -0.550000     7.534107268     6.559747013    10.160542650
    198      0   1 -0.550000     5.017318739     6.643198021     2.413162452
    199      0   1 -0.550000     7.519515609     6.034715199     1.795168948
    200      0   1 -0.550000     1.484805862     5.892876535     9.706116650
    201      0   1 -0.550000     4.528804643     5.935822690     5.914349351
    202      0   1 -0.550000     1.267343972     8.463626753     4.829447217
    203      0   1 -0.550000     6.718182375     8.611041977     8.849359462
    204      0   2 -0.675000     4.033613649     8.408517715     0.681211897
    205      0   3  1.100000     9.146523400     6.275061997     1.812594116
    206      0   3  1.100000     3.044001843     6.163933886     9.738518642
    207      0   3  1.100000     6.129435204     6.308560830     5.844155939
    208      0   3  1.100000     1.632585217     8.152170513     6.358263690
    209      0   3  1.100000     6.998783241     8.056764392    10.306717456
    210      0   3  1.100000     4.592311794     8.137460364     2.235483892
    211      0   3  1.100000     4.101495114     8.640532917    11.252895894
    212      0   3  1.100000     1.809979749     8.770692804     3.430718568
    213      0   3  1.100000     7.300919343     8.723007404     7.357669158
    214      0   3  1.100000     3.231914231     5.639911836     6.758730983
    215      0   3  1.100000     8.741616803     5.645035456    10.767664107
    216      0   3  1.100000     6.274643307     5.712068441     2.843224498
    217      0   4  0.400000     9.617218765     6.853094037    -0.102605923
    218      0   4  0.400000     4.236680286     7.639708999     0.180644318
    219      0   1 -0.550000     3.269275008     5.236498464    22.737578062
    220      0   1 -0.550000     9.504152384     5.313849331    14.673471409
    221      0   1 -0.550000     6.466464316     5.144194357    18.501498860
    222      0   1 -0.550000     2.152217041     8.970185695    18.884269086
    223      0   1 -0.550000     7.529432444     9.108292802    22.816620999
    224      0   1 -0.550000     5.245196988     9.094245441    14.741334955
    225      0   1 -0.550000     5.121124104     8.348455428    23.270449166
    226      0   1 -0.550000     2.710746024     8.241233401    15.182322090
    227      0   1 -0.550000     8.160617222     8.239072588    19.232971713
    228      0   1 -0.550000     3.137924205     6.026593452    20.284340134
    229      0   1 -0.550000     9.063184568     6.172928269    12.242920429
    230      0   1 -0.550000     6.006632025     6.262128286    16.175806724
    231      0   1 -0.550000     2.751480077     7.731223392    22.278495304
    232      0   1 -0.550000     5.621055596     7.626544475    18.347140772
    233      0   1 -0.550000     1.584706585     6.576584732    18.206353410
    234      0   1 -0.550000     6.880418060     6.657768964    22.389672546
    235      0   1 -0.550000     4.622695163     6.644243107    14.103009156
    236      0   1 -0.550000     7.056513035     5.754002755    13.870339808
    237      0   1 -0.550000     0.945542367     5.956911392    21.733715114
    238      0   1 -0.550000     3.956786535     5.665845746    17.800496689
    239      0   1 -0.550000     0.604173768     8.445326331    16.736154384
    240      0   1 -0.550000     5.981757346     8.586572850    20.789599847
    241      0   1 -0.550000     3.672681043     8.537212820    12.776322940
    242      0   3  1.100000     8.564922798     6.268055977    13.757631793
    243      0   3  1.100000     2.523567996     6.268612802    21.705572315
    244      0   3  1.100000     5.515080985     6.157170957    17.714202416
    245      0   3  1.100000     1.050916951     8.030132374    18.221123769
    246      0   3  1.100000     6.351038562     8.158966685    22.289872981
    247      0   3  1.100000     4.015451691     8.101451664    14.206203386
    248      0   3  1.100000     3.538958001     8.630562013    23.318553464
    249      0   3  1.100000     1.187211246     8.679190690    15.281790517
    250      0   3  1.100000     6.523392086     8.610449832    19.268633535
    251      0   3  1.100000     2.664602788     5.613350459    18.752464101
    252      0   3  1.100000     8.125791876     5.709593895    22.728928806
    253      0   3  1.100000     5.690539117     5.715135133    14.768347521
    254      0   1 -0.550000     4.063063645    10.135073672    10.701862741
    255      0   1 -0.550000     9.920979880    10.249025385     2.911807328
    256      0   1 -0.550000     7.042990077    10.205277235     6.834113552
    257      0   1 -0.550000     2.814786225    14.123780452     6.826462669
    258      0   1 -0.550000     8.403118972    14.063616358    10.689952663
    259      0   1 -0.550000     5.858285482    14.070343966     2.965872613
    260      0   1 -0.550000     5.812808941    13.474828098    11.339856410
    261      0   1 -0.550000     3.328240674    13.173548455     3.473772510
    262      0   1 -0.550000     8.702385301    13.419299363     7.312492559
    263      0   1 -0.550000     3.712714569    11.108347414     8.262330374
    264      0   2 -0.675000     9.738610014    10.932417771     0.407245177
    265      0   1 -0.550000     6.756914354    10.952286861     4.291201558
    266      0   1 -0.550000     3.558690175    12.719104580    10.277110311
    267      0   1 -0.550000     6.344427339    12.610800068     6.320006297
    268      0   1 -0.550000     2.129412101    11.547557559     6.326326679
    269      0   1 -0.550000     7.499349586    11.566695297    10.510843466
    270      0   1 -0.550000     5.177884702    11.589213460     2.361059707
    271      0   1 -0.550000     7.611469728    10.851162897     1.821602766
    272      0   1 -0.550000     1.603837739    10.934682469     9.845903656
    273      0   1 -0.550000     4.550341868    10.750213460     5.816211922
    274      0   1 -0.550000     1.245140052    13.502540523     4.948942577
    275      0   1 -0.550000     6.701821487    13.400475359     8.916758026
    276      0   2 -0.675000     4.126302128    13.695933274     1.067687354
    277      0   3  1.100000     9.173435975    11.213269422     1.887617786
    278      0   3  1.100000     3.228308109    11.211073288     9.812637135
    279      0   3  1.100000     6.153376511    11.076589698     5.832712331
    280      0   3  1.100000     1.626342168    13.115545174     6.396055109
    281      0   3  1.100000     7.097947615    13.103833153    10.354289355
    282      0   3  1.100000     4.670842463    13.107597954     2.513189551
    283      0   3  1.100000     4.205734327    13.727200651    11.359882352
    284      0   3  1.100000     1.778694850    13.652812591     3.480186582
    285      0   3  1.100000     7.126661261    13.663550169     7.375234365
    286      0   3  1.100000     3.341094946    10.629536218     6.807899089
    287      0   3  1.100000     8.657977462    10.563689601    11.001131558
    288      0   3  1.100000     6.324627500    10.623087023     2.761134889
    289      0   4  0.400000     4.820593283    13.605365507     0.416943913
    290      0   4  0.400000     9.849271418    11.772817414    -0.027563481
    291      0   1 -0.550000     3.267740615    10.157731042    23.005044703
    292      0   1 -0.550000     9.355071482    10.280814266    14.929159835
    293      0   1 -0.550000     6.378918343    10.147342518    18.807488598
    294      0   1 -0.550000     2.281900112    13.979712410    18.620195126
    295      0   1 -0.550000     7.689765561    14.082893302    22.580824673
    296      0   1 -0.550000     5.308202625    13.997456008    14.859698100
    297      0   1 -0.550000     5.254847146    13.338289658    23.224740168
    298      0   1 -0.550000     2.859426910    13.238316743    15.339208331
    299      0   1 -0.550000     8.096676222    13.220433939    19.196377944
    300      0   1 -0.550000     3.138190883    10.756976389    20.375292157
    301      0   1 -0.550000     9.121214872    10.971389278    12.483906903
    302      0   1 -0.550000     5.987634210    10.994570229    16.392174941
    303      0   1 -0.550000     2.912949561    12.727191006    22.218414502
    304      0   1 -0.550000     5.634680050    12.649632369    18.335763094
    305      0   1 -0.550000     1.426108864    11.497119201    18.468964015
    306      0   1 -0.550000     7.010168795    11.547279147    22.115353124
    307      0   1 -0.550000     4.544064987    11.546094855    14.359564093
    308      0   1 -0.550000     6.970668625    10.949602467    13.913653505
    309      0   1 -0.550000     0.969882695    10.984634645    21.830322267
    310      0   1 -0.550000     3.881328632    10.756070510    17.932632813
    311      0   1 -0.550000     0.751920286    13.132869076    16.653119940
    312      0   1 -0.550000     6.003859769    13.435682065    20.775826868
    313      0   1 -0.550000     3.628673221    13.472528079    12.802936951
    314      0   3  1.100000     8.524821608    11.245581885    13.922635882
    315      0   3  1.100000     2.620929308    11.131771456    21.854142421
    316      0   3  1.100000     5.470273129    11.098900091    17.897238677
    317      0   3  1.100000     1.052453334    13.019999847    18.241816945
    318      0   3  1.100000     6.495177963    13.075250170    22.184017747
    319      0   3  1.100000     4.076686109    13.062596948    14.317514472
    320      0   3  1.100000     3.673982591    13.732359592    23.196462534
    321      0   3  1.100000     1.282202309    13.564900751    15.221644281
    322      0   3  1.100000     6.494344097    13.633990665    19.240823857
    323      0   3  1.100000     2.607374509    10.506590122    18.908753500
    324      0   3  1.100000     8.067928743    10.578607521    22.838975816
    325      0   3  1.100000     5.710506127    10.603253254    14.884916174
    326      0   1 -0.550000     3.976719712    15.265803289    10.888357118
    327      0   1 -0.550000     9.793233209    15.243667424     3.113598019
    328      0   1 -0.550000     6.880485724    15.206788166     6.975963730
    329      0   1 -0.550000     2.781162919    19.039721375     6.840967324
    330      0   1 -0.550000     8.174540196    18.974128888    10.990952522
    331      0   1 -0.550000     5.857750136    19.058346050     2.679850324
    332      0   1 -0.550000     5.753811433    18.198295720    11.329077557
    333      0   1 -0.550000     3.516387897    18.439925047     3.359088075
    334      0   1 -0.550000     8.741783974    18.231097158     7.390204002
    335      0   1 -0.550000     3.606737969    15.845108905     8.449889549
    336      0   2 -0.675000     9.667190093    15.851069839     0.643972706
    337      0   1 -0.550000     6.646129591    16.002353749     4.498840709
    338      0   1 -0.550000     3.329476547    17.663990753    10.337788946
    339      0   1 -0.550000     6.417315979    17.762945918     6.440432613
    340      0   1 -0.550000     2.005239710    16.584832020     6.495389692
    341      0   1 -0.550000     7.545827164    16.538960456    10.373584612
    342      0   1 -0.550000     5.089873037    16.554088224     2.447699990
    343      0   1 -0.550000     7.565224996    15.801815773     2.059574542
    344      0   1 -0.550000     1.566876979    15.627176384     9.995538561
    345      0   1 -0.550000     4.562495614    15.855216938     6.025926637
    346      0   1 -0.550000     1.304306722    18.397691025     4.853266380
    347      0   1 -0.550000     6.672606327    18.582090301     8.970251751
    348      0   2 -0.675000     4.217320885    18.380349073     0.756987321
    349      0   3  1.100000     9.060446144    16.180408884     2.077458991
    350      0   3  1.100000     3.075519588    16.139347207     9.945504935
    351      0   3  1.100000     6.107366614    16.189856207     5.994123469
    352      0   3  1.100000     1.592452185    18.114461960     6.377891076
    353      0   3  1.100000     7.034008605    18.038718782    10.389685473
    354      0   3  1.100000     4.682060846    18.054349160     2.274891841
    355      0   3  1.100000     4.193313904    18.600554732    11.305724368
    356      0   3  1.100000     1.942166408    18.707907135     3.428649449
    357      0   3  1.100000     7.280952333    18.715711903     7.466252813
    358      0   3  1.100000     3.258691478    15.613825054     6.877427250
    359      0   3  1.100000     8.774605256    15.556345355    10.797537947
    360      0   3  1.100000     6.272907910    15.568439673     2.992100461
    361      0   4  0.400000     4.563438052    19.213545100     0.486670132
    362      0   4  0.400000     9.931592675    16.664478950     0.254955339
    363      0   1 -0.550000     3.480159506    15.274724953    22.746161883
    364      0   1 -0.550000     9.384618994    15.215815793    14.853910118
    365      0   1 -0.550000     6.435579434    15.169593097    18.760514532
    366      0   1 -0.550000     2.314319387    18.936569312    18.938161367
    367      0   1 -0.550000     7.700082414    19.008132993    22.676367027
    368      0   1 -0.550000     5.338520319    19.013835772    14.798619917
    369      0   1 -0.550000     5.197451695    18.539064933    23.273708995
    370      0   1 -0.550000     2.845537768    18.343037003    15.301817450
    371      0   1 -0.550000     8.342686578    18.361414171    19.289392146
    372      0   1 -0.550000     3.184166947    15.885264703    20.270834842
    373      0   1 -0.550000     9.121782060    15.904994586    12.330612622
    374      0   1 -0.550000     6.177916847    16.023199360    16.314795627
    375      0   1 -0.550000     2.989844340    17.798720779    22.117815842
    376      0   1 -0.550000     5.915312758    17.665925356    18.276215683
    377      0   1 -0.550000     1.567878016    16.456693740    18.299901002