LAMMPS 2005 data file for silica_Q3_amorph_0pc4

   2928 atoms
   3736 bonds
   7220 angles
  10704 dihedrals
   3568 impropers

   4 atom types
   3 bond types
   5 angle types
   4 dihedral types
   3 improper types

     0.000000000    40.314800000 xlo xhi
     0.000000000    41.432000000 ylo yhi
     0.000000000    53.607900000 zlo zhi

Masses

   1  28.086000
   2  15.999400
   3  15.999400
   4   1.008000

Pair Coeffs

   1   0.0800000000   4.2000000000 
   2   0.0400000000   3.6000000000 
   3   0.1200000000   3.6000000000 
   4   0.0130000000   1.0980000000 

Bond Coeffs

  1     1.6800   285.0000     0.0000     0.0000 
  2     1.6800   285.0000     0.0000     0.0000 
  3     0.9450   495.0000     0.0000     0.0000 

Angle Coeffs

  1   109.5000   100.0000     0.0000     0.0000 
  2   109.5000   100.0000     0.0000     0.0000 
  3   149.0000   100.0000     0.0000     0.0000 
  4   115.0000    50.0000     0.0000     0.0000 
  5   109.5000   100.0000     0.0000     0.0000 

Atoms

      1      0   1  1.100000    15.599077875    20.137934955    18.299446573
      2      0   1  1.100000    14.390763813     7.019158593    15.896755123
      3      0   1  1.100000    18.730529006    14.051616887    21.601054110
      4      0   1  1.100000    17.048313921    14.428979713    16.223983822
      5      0   1  1.100000     8.561891657     2.245315388    16.972848969
      6      0   1  1.100000    17.834976666     2.048152961    13.682573120
      7      0   1  1.100000    13.848732002     2.664876305    21.355414127
      8      0   2 -0.550000     8.651430911    19.837510613    15.808060356
      9      0   2 -0.550000    14.088644747     6.011449675    10.427047969
     10      0   2 -0.550000    12.309351759    12.843460439     6.139313109
     11      0   2 -0.550000     8.161404905     3.137184565    11.290411289
     12      0   2 -0.550000    16.451454043    17.898825055    12.270090806
     13      0   2 -0.550000     1.908791918    18.832826880    20.188831412
     14      0   2 -0.550000     3.870114085     5.164455878    16.580864451
     15      0   2 -0.550000     8.052192114     7.959375013     8.693451149
     16      0   2 -0.550000    18.011837253    17.693033442    14.184783035
     17      0   2 -0.550000    16.429643684    14.295112185     8.361078303
     18      0   2 -0.550000     9.608262033     2.093993314     2.194770827
     19      0   2 -0.550000    12.125758111    10.169770967    19.890616507
     20      0   2 -0.550000    19.150769793     2.230130502    12.715547299
     21      0   2 -0.550000     0.415040657     0.629861483    11.601704846
     22      0   2 -0.550000     1.982830055    13.204457631     7.332148228
     23      0   1  1.100000     7.454243099     7.614660726    10.055200309
     24      0   1  1.100000    13.221755974     4.632634818    10.402731909
     25      0   1  1.100000    14.002169853     6.735556749     3.343482880
     26      0   1  1.100000    14.447204259     7.568380950    10.013060374
     27      0   1  1.100000    17.770755474     0.950578219    16.828581370
     28      0   1  1.100000    16.802958498     5.717075703     3.887620603
     29      0   1  1.100000     2.470715484     5.098330271    12.240274240
     30      0   1  1.100000    11.050160076     9.260794831     6.241655110
     31      0   2 -0.550000    13.507185363     2.614660702    19.775929074
     32      0   2 -0.550000    18.122823421     4.290530833     6.760467084
     33      0   2 -0.550000    10.218789280    17.266697191    10.458989314
     34      0   2 -0.550000    18.353424742     4.432891106    19.264819710
     35      0   2 -0.550000    15.269706975     8.615408630     6.413535278
     36      0   3 -0.675000    17.677184673     3.734604604    21.816405432
     37      0   2 -0.550000    20.438222549     2.569785785    16.315440802
     38      0   2 -0.550000    17.186472626     2.364788592    17.648011006
     39      0   2 -0.550000     3.001467556     3.793802846    11.422143042
     40      0   2 -0.550000    10.613632106    10.809274109     6.301957401
     41      0   2 -0.550000    10.188351135     2.539320936     6.665688597
     42      0   2 -0.550000    12.687424411     9.094652899     6.294539824
     43      0   2 -0.550000     8.934883875     2.058631215     4.751432098
     44      0   2 -0.550000     0.058981329    16.926582420    15.384913344
     45      0   1  1.100000    17.510241053    12.968626547    11.601916972
     46      0   1  1.100000     1.442470846     8.042652802     3.667712967
     47      0   1  1.100000    13.808053694    17.581705395    18.131546783
     48      0   1  1.100000    14.695946637    11.825683212    11.469028552
     49      0   1  1.100000     0.604044393    11.900716446    16.173604738
     50      0   1  1.100000     2.954178437    12.743857762     6.211670523
     51      0   1  1.100000     4.205436187    19.367382029    21.650465785
     52      0   1  1.100000    11.362760801     1.272666360    16.638018907
     53      0   2 -0.550000     3.356040276    14.538525987    16.413531737
     54      0   2 -0.550000    14.198300883    10.981755347     5.272954287
     55      0   2 -0.550000    19.597337280     6.226895950     7.193928863
     56      0   2 -0.550000     2.420382431    16.752775040    13.780191961
     57      0   2 -0.550000    17.082783011     6.726400316     7.285588735
     58      0   2 -0.550000    17.059401124    16.764748599     4.291857782
     59      0   2 -0.550000     5.283816235    19.006095901     4.190131504
     60      0   2 -0.550000    -0.369162520    20.190180519     3.697269915
     61      0   2 -0.550000     0.900986982     5.104876401    12.517288491
     62      0   2 -0.550000    14.365728697    16.667467289    14.686521558
     63      0   2 -0.550000    14.679780803     5.399955426    15.969467608
     64      0   2 -0.550000    18.960363786     6.452742071    12.357085749
     65      0   2 -0.550000     7.908348635    14.614055599    14.344136568
     66      0   2 -0.550000     6.020488047     1.635631311    10.469164334
     67      0   2 -0.550000    10.221288346     4.139888345    17.507567306
     68      0   1  1.100000    13.569672828    18.272458877    22.501741081
     69      0   1  1.100000    16.296765458     9.209377797    16.532680504
     70      0   1  1.100000     0.242734482    19.151770295     4.719844648
     71      0   1  1.100000    14.853577632     9.139274997    20.236212587
     72      0   1  1.100000    13.902108689     4.018015984    16.070957488
     73      0   1  1.100000     1.791157394    14.615464471    16.446700811
     74      0   1  1.100000    14.965007143     1.339541781     2.295175802
     75      0   1  1.100000    14.322268977    14.063797887     2.293121380
     76      0   2 -0.550000    14.002895543    12.747544784     3.156295440
     77      0   2 -0.550000     9.036235422     8.032088115    15.949873202
     78      0   3 -0.675000    11.618356388     9.159244923     2.311841953
     79      0   2 -0.550000    -0.196332878     4.263475800    21.081279586
     80      0   2 -0.550000    13.058803651     5.985844879    20.853652387
     81      0   2 -0.550000    -0.103487768    14.102453579    20.717931044
     82      0   2 -0.550000     5.777470692    16.235041155     8.146865181
     83      0   2 -0.550000    16.183925416    10.249610541    20.221645887
     84      0   2 -0.550000     5.495750854    14.218960249    14.889029925
     85      0   2 -0.550000     8.549112178    18.844220098    11.340837864
     86      0   2 -0.550000     8.744235171    12.579703810    20.776030394
     87      0   2 -0.550000    10.126709508    17.098110416    19.144631772
     88      0   2 -0.550000     1.259054790    15.906941926    17.143628469
     89      0   2 -0.550000    14.050789904    11.445006265    10.059662346
     90      0   1  1.100000    10.090386544    16.689136258     8.951367186
     91      0   1  1.100000    13.052515135    11.252016741    22.090373930
     92      0   1  1.100000    16.705356752     8.671922175    11.358496399
     93      0   1  1.100000     7.615260449    10.966466432     7.845506024
     94      0   1  1.100000     8.133546927    10.701675066     2.808528145
     95      0   1  1.100000    13.284727633    13.471196228     7.304128051
     96      0   1  1.100000    14.107995689     9.735398219     6.361163576
     97      0   1  1.100000     7.322131413    15.618948007     8.254259766
     98      0   2 -0.550000    12.286937059     3.069314846     5.259852419
     99      0   2 -0.550000    13.915895604     9.017216187    18.745209822
    100      0   2 -0.550000     2.509965990    11.289471002     5.795089990
    101      0   2 -0.550000     7.788130341    14.991460407     6.836661535
    102      0   2 -0.550000     2.550901563    14.420320275    12.919070916
    103      0   2 -0.550000    19.160405615    10.327958514     9.585238496
    104      0   2 -0.550000     1.802175512    13.983419336    19.064931436
    105      0   2 -0.550000    18.211072893    17.065503859    19.527244043
    106      0   2 -0.550000    17.077663530     5.372858411    11.471837904
    107      0   2 -0.550000    14.620033901    12.661241809     7.494610483
    108      0   2 -0.550000    17.582403988    13.010928513    15.844156982
    109      0   2 -0.550000    17.169096908    14.400723249    10.935797561
    110      0   2 -0.550000    16.238430287    14.468961547     5.121816333
    111      0   2 -0.550000    13.512789039    14.947086498     6.732137645
    112      0   2 -0.550000    13.342699959     9.981587166    14.809518145
    113      0   1  1.100000    -0.495711381    11.243647474    18.879373462
    114      0   1  1.100000     2.544810089    12.943228574    12.321673697
    115      0   1  1.100000     0.637025908    14.981267385    19.490037889
    116      0   1  1.100000    15.157954267    17.651435294     9.142496373
    117      0   1  1.100000    13.119154895     9.961989523    13.213767975
    118      0   1  1.100000    18.153221916    17.504890388     5.292903293
    119      0   1  1.100000    -0.072686778     5.994794488    13.345877896
    120      0   1  1.100000    18.233649792    12.408175814    14.508470669
    121      0   2 -0.550000     8.946736417    10.519084770    16.764344785
    122      0   2 -0.550000    16.300958602    11.994767599    11.367538321
    123      0   2 -0.550000     6.362559129     5.299524219     7.321250819
    124      0   2 -0.550000    13.125968454    14.857344690    15.853529229
    125      0   2 -0.550000     0.917677259     2.836736145    10.527097993
    126      0   2 -0.550000    15.674910113    14.677778345    15.746750619
    127      0   2 -0.550000     2.783727413    12.921642335     2.362929531
    128      0   2 -0.550000    12.968659454    14.840275237     2.120123526
    129      0   2 -0.550000     4.139239471     7.246454333    14.770517889
    130      0   2 -0.550000     5.480915053     4.830638122     4.822845794
    131      0   2 -0.550000    12.342208471    13.495973111    13.718362990
    132      0   2 -0.550000    10.329734597    12.740418930     9.718268685
    133      0   2 -0.550000    17.939311473    13.245847102    13.163152492
    134      0   2 -0.550000    12.244687223    17.744366512    17.832104852
    135      0   2 -0.550000    17.315399204     8.948977889    15.339089872
    136      0   2 -0.550000     1.346207242    16.326357294    19.800221916
    137      0   1  1.100000     7.124186157    15.724225684    19.821279747
    138      0   1  1.100000     3.286416655     1.613286923    14.140731151
    139      0   1  1.100000    10.567914816     4.040020502    19.021775899
    140      0   1  1.100000    15.468740766     1.075955550    11.920293009
    141      0   1  1.100000    18.623573784    16.771627499    15.308423395
    142      0   1  1.100000    10.956630125    18.328267986    18.592656286
    143      0   1  1.100000    13.060456879    16.004057776    20.697250327
    144      0   1  1.100000     9.977787398    17.791060552     2.501625564
    145      0   2 -0.550000     2.365014150    17.837796576    15.969042653
    146      0   2 -0.550000     5.559045109    15.780449675    17.026745900
    147      0   2 -0.550000    16.803079847     1.681972979    12.444977743
    148      0   2 -0.550000     8.603617650     6.804209312     6.475066859
    149      0   2 -0.550000    15.433304490     2.432596264    21.634695982
    150      0   2 -0.550000     6.766674331     6.223996094     9.882319951
    151      0   2 -0.550000    19.210718543     5.786722873     9.797449436
    152      0   2 -0.550000    -0.452330958    15.357843663    18.373550719
    153      0   2 -0.550000    17.377645173    18.208695383    21.752970212
    154      0   2 -0.550000    12.461298581     5.686830026    13.409973064
    155      0   2 -0.550000    11.690036331    10.657343139     8.910785129
    156      0   2 -0.550000     1.060633450    12.652168723    11.843284178
    157      0   2 -0.550000    13.140804256    16.763506421    22.105979099
    158      0   2 -0.550000     8.545322128    17.029168299     2.773612812
    159      0   2 -0.550000     0.582834809    12.529032576     3.751638940
    160      0   3 -0.675000     5.390086016     7.908827874    21.362237343
    161      0   1  1.100000     1.842006480    13.592094973     3.477953276
    162      0   1  1.100000    19.304852835    15.801869221     7.621278471
    163      0   1  1.100000    17.917540763     9.503462216    14.036998293
    164      0   1  1.100000    10.881362581    12.247337217     5.676176919
    165      0   1  1.100000    10.692567751    12.254835972     2.680880964
    166      0   1  1.100000     0.886489771    19.987370874     7.658354641
    167      0   1  1.100000     3.139848233     6.463058570     9.673272259
    168      0   1  1.100000    18.214540347     5.862294467     6.520457680
    169      0   2 -0.550000     2.433972605     9.182073958     7.185401690
    170      0   2 -0.550000    14.859100808    10.359115451     2.806687607
    171      0   2 -0.550000     9.487962639    11.247541937     2.214908389
    172      0   2 -0.550000     8.204218833     1.002575363    20.475241832
    173      0   2 -0.550000    16.437626278     1.942990273     2.595018767
    174      0   2 -0.550000     8.508152124     6.786352077     3.967344861
    175      0   2 -0.550000     1.668681080    17.550796646     1.903615536
    176      0   2 -0.550000    14.070584189    10.318429181     7.829804466
    177      0   3 -0.675000    14.765288511    13.735698658     0.770861843
    178      0   2 -0.550000     8.108309964     6.012071382    18.229023502
    179      0   2 -0.550000    16.818841985     5.733441337    14.167620164
    180      0   2 -0.550000    11.044435052    11.870678210     4.147803364
    181      0   2 -0.550000     1.329138050    14.783222716    14.931524107
    182      0   2 -0.550000    14.732068955    18.541186688    21.477420089
    183      0   1  1.100000    16.901124937    15.192115379     9.543830273
    184      0   1  1.100000    -0.169443888    20.264798871    12.871713663
    185      0   1  1.100000    10.997589578     4.108068645    16.084886050
    186      0   1  1.100000    13.178337104    16.025519304     5.519562381
    187      0   1  1.100000     0.683037183     1.392698914    15.245886633
    188      0   1  1.100000    16.609326534    19.489606916     7.245512018
    189      0   1  1.100000    11.091362226    19.649907153    21.364432479
    190      0   2 -0.550000    17.166476493     8.714472947    12.878890774
    191      0   2 -0.550000     5.624718283     1.555054271    19.770688889
    192      0   2 -0.550000    15.850683366    16.361283982     9.721078038
    193      0   2 -0.550000     1.154566946    19.458117826    13.132509936
    194      0   2 -0.550000     0.614215847     7.316972015    13.711256939
    195      0   2 -0.550000     3.558267285    18.906078342    13.992686088
    196      0   2 -0.550000     6.051248186    17.410176164     2.011668310
    197      0   2 -0.550000     8.452356269    16.699493504     8.572460790
    198      0   2 -0.550000    18.747098535    16.771543535    11.553922285
    199      0   2 -0.550000     4.569882020    12.690078615     6.270030831
    200      0   2 -0.550000    15.361020206    20.229954912    12.480177318
    201      0   2 -0.550000    16.074349779    18.210808074     7.989823400
    202      0   2 -0.550000     1.627813991    18.908563933     3.978392307
    203      0   2 -0.550000    13.018932734     8.440938796    12.649941567
    204      0   2 -0.550000    18.119840161    11.703997919    18.865728438
    205      0   2 -0.550000     0.072887913    17.225265737    21.581624339
    206      0   1  1.100000     2.474460779    16.223233055     2.200319175
    207      0   1  1.100000     4.930779900     8.591999871    14.440787298
    208      0   1  1.100000    17.363374064     3.242094281     2.503940308
    209      0   1  1.100000    18.472393503    17.043917620    21.220023463
    210      0   1  1.100000     4.589595806     4.290448104    17.790059547
    211      0   1  1.100000    18.633290105     4.585485147    20.891802731
    212      0   1  1.100000    -0.308327082     1.872050454    11.123834209
    213      0   1  1.100000     4.410960942     1.374729932    16.989469388
    214      0   2 -0.550000    17.143739798     8.991279855     2.994416796
    215      0   3 -0.675000     2.352685825    13.212784916    21.392383883
    216      0   2 -0.550000     1.051417543     2.169068067     3.375282808
    217      0   2 -0.550000     8.473925132     1.090808900     7.052109245
    218      0   2 -0.550000    16.179449925    12.098222756     4.146622775
    219      0   2 -0.550000     8.381966709     3.880101499    16.630251502
    220      0   2 -0.550000    12.381596395    19.352840149    22.245124009
    221      0   2 -0.550000    12.085282853     7.013440993    18.670703235
    222      0   2 -0.550000    14.111865637    14.802571553    20.622932296
    223      0   2 -0.550000    19.785647915    12.152913164    14.870261509
    224      0   2 -0.550000    19.263812884     0.424640565    17.453694297
    225      0   3 -0.675000     0.932017228    10.435059945    21.942872023
    226      0   2 -0.550000     2.809565113    -0.143438226     7.466618625
    227      0   2 -0.550000    10.221046849     6.257804699    12.484827912
    228      0   2 -0.550000     6.304949648     3.808942046     9.405393857
    229      0   1  1.100000     2.763618342    19.672446635    12.903277191
    230      0   1  1.100000     6.097731415     9.598341282     5.569634005
    231      0   1  1.100000     0.538653829     8.911440280    13.208975964
    232      0   1  1.100000     2.930489273     9.754415521     5.805381802
    233      0   1  1.100000     6.531962167     4.437904269     5.974131504
    234      0   1  1.100000    12.710605652     1.620815158     4.468775924
    235      0   1  1.100000     2.508639562     2.873391202    10.158012547
    236      0   2 -0.550000     1.709882930     6.947398732    18.257684103
    237      0   2 -0.550000    17.310521219     9.311797600     8.083586681
    238      0   2 -0.550000    10.748727052     3.802209157    12.195277462
    239      0   2 -0.550000     0.018142258     8.168233176     8.991052015
    240      0   2 -0.550000     2.944140121     2.189481584     6.502777773
    241      0   2 -0.550000    14.032808643    12.389034418    21.615761524
    242      0   2 -0.550000    10.011409448     1.662798245    17.363606463
    243      0   2 -0.550000    18.403696820     1.667455178     7.523400189
    244      0   2 -0.550000     7.862470347    18.954263985    13.737815275
    245      0   2 -0.550000    17.903914845     6.173117420     5.067471229
    246      0   2 -0.550000    11.327848368    19.316006977    19.829897064
    247      0   2 -0.550000    15.511796791     7.489411888     8.874901334
    248      0   2 -0.550000     0.102888561    11.935685116     6.377082382
    249      0   2 -0.550000     4.130329940     2.795171645    13.592084252
    250      0   2 -0.550000    13.202445883     3.970762902    11.935212901
    251      0   2 -0.550000     1.698292309     6.116769952     8.940129776
    252      0   1  1.100000     5.715829666     9.442267043    11.633716900
    253      0   1  1.100000    13.499524765     6.985018453    13.172595800
    254      0   1  1.100000     7.470409534     5.088262269    17.051463698
    255      0   1  1.100000    17.835702356     7.899960995    18.687701470
    256      0   1  1.100000    10.280268708    10.288100774    12.477367966
    257      0   1  1.100000     1.707113232    15.409218714    13.634979468
    258      0   1  1.100000     9.976134170     0.976150063     6.911028639
    259      0   1  1.100000     7.628967466    11.598926448    12.405033297
    260      0   2 -0.550000     6.502289962     8.311919590     4.702469299
    261      0   2 -0.550000     3.984741019    10.524553564     8.620195860
    262      0   2 -0.550000     8.167694022     7.080809396    13.698791801
    263      0   2 -0.550000     5.889828342    14.184033561    11.222869335
    264      0   2 -0.550000     6.409002109     8.481997967    15.048052077
    265      0   2 -0.550000    13.716781314    17.313598673     8.651594401
    266      0   2 -0.550000    12.827840686    17.423393136     6.211198131
    267      0   2 -0.550000     4.975166257    12.779282063     9.331595412
    268      0   2 -0.550000    17.344870162    15.050708348    17.735690522
    269      0   2 -0.550000    17.276495474     9.142009394    17.840273292
    270      0   2 -0.550000    16.630250205     6.895069821    18.356128934
    271      0   2 -0.550000     3.497891711    12.965891533    11.110590220
    272      0   2 -0.550000    15.248259461     8.149920310    11.180611201
    273      0   2 -0.550000    13.066101404     3.892771469    22.179659695
    274      0   2 -0.550000     1.834052421     1.989646807    14.453653470
    275      0   2 -0.550000    10.363236500    18.075035296    15.310689592
    276      0   1  1.100000    16.314383873     8.042073078     7.596771216
    277      0   1  1.100000     6.862099607    13.452552444    14.713812310
    278      0   1  1.100000     4.477601302     1.476731302    20.928984964
    279      0   1  1.100000    18.338467591    16.234337337    18.091933014
    280      0   1  1.100000    17.237228898     3.993015916    18.211742432
    281      0   1  1.100000     1.613465987    17.368910170    20.934958268
    282      0   1  1.100000    15.539614520     6.232530821    19.207900950
    283      0   1  1.100000    13.834096846    10.965389713    16.079669083
    284      0   2 -0.550000    12.996557682    10.738466256    17.411224037
    285      0   2 -0.550000    -0.096353415     8.496043469     3.526443276
    286      0   2 -0.550000    16.220167881    -0.184620256    22.096158678
    287      0   2 -0.550000     3.962116361     2.731279427    17.624214180
    288      0   2 -0.550000    14.851843905     6.413878938    12.531689148
    289      0   2 -0.550000     9.818947119    16.193402260    13.450767422
    290      0   2 -0.550000    11.791266528    10.743313960    12.783797747
    291      0   2 -0.550000    14.172257731     5.981784340    18.604601487
    292      0   2 -0.550000    10.867372617     6.721842782     2.927040181
    293      0   2 -0.550000    18.055377472    15.310403821    15.293031408
    294      0   2 -0.550000     4.272923286    19.212675297    20.036536790
    295      0   2 -0.550000    15.342797448    10.555295619    16.394574765
    296      0   2 -0.550000    12.607197181     1.106698068    17.676127748
    297      0   2 -0.550000     2.595372924     4.598121777     5.990680862
    298      0   2 -0.550000    15.463096241     7.858860459    16.634878877
    299      0   1  1.100000    18.710613371     9.565154384     3.218762548
    300      0   1  1.100000    16.982802346    13.075562519     5.125168138
    301      0   1  1.100000     5.940907210     5.271018950     8.923958410
    302      0   1  1.100000    -0.054746367    13.074774736    10.636638465
    303      0   1  1.100000    19.676837617    12.237268907     4.555369833
    304      0   1  1.100000     9.734245600     3.075513080    11.021966162
    305      0   1  1.100000    10.231649858    11.087365176     9.519703121
    306      0   1  1.100000     0.087790678     9.337070861     9.990467707
    307      0   2 -0.550000    10.571301772    15.195388753     8.861751622
    308      0   2 -0.550000     0.333348418    12.442688854     9.102126971
    309      0   2 -0.550000     9.985406546     8.845480749    13.066714945
    310      0   2 -0.550000    18.387046792    16.498838532     6.512716658
    311      0   2 -0.550000     7.724029897     3.285349489     3.304813302
    312      0   2 -0.550000     7.296128511    11.852697497    18.530094900
    313      0   2 -0.550000     5.990212102    12.275344257    20.595972925
    314      0   2 -0.550000     7.072059003    14.240588471    19.304551679
    315      0   2 -0.550000     1.935641560     9.754042620    13.337827655
    316      0   2 -0.550000    13.014135248     5.475071390     2.810157611
    317      0   2 -0.550000    15.271560849     7.458254951    20.333665385
    318      0   2 -0.550000    14.045910718     1.275935335     7.895361124
    319      0   2 -0.550000    12.624411902    13.501607364     8.780753025
    320      0   2 -0.550000    -0.431086494    14.265446849     7.335462744
    321      0   2 -0.550000    19.505620354     9.402161114    13.914662357
    322      0   2 -0.550000    17.021101735    12.525801185     6.591493779
    323      0   1  1.100000     2.717345070    10.666913836    14.393453262
    324      0   1  1.100000    12.942696801    14.094789365    12.309492097
    325      0   1  1.100000    17.767247170     4.855787598    15.069299168
    326      0   1  1.100000     4.432690802    16.478205534     9.130432973
    327      0   1  1.100000    16.067092876     5.422784461    12.749661266
    328      0   1  1.100000     4.567221055    13.790802713    10.449805975
    329      0   1  1.100000     0.440443010     9.424451172    20.733748690
    330      0   1  1.100000     7.416871248    18.401768871    12.422149029
    331      0   2 -0.550000     6.245283245     8.505820991    10.469919616
    332      0   2 -0.550000    10.610286001    18.559043923    12.695386519
    333      0   2 -0.550000     0.733386306    11.900468257    19.744271267
    334      0   2 -0.550000     5.025922529    10.666498954    10.896136301
    335      0   2 -0.550000    17.484882741    18.861621703     5.922029379
    336      0   2 -0.550000    13.656591067    17.078720831    19.582180145
    337      0   2 -0.550000     6.625572616    10.894706571     9.013408635
    338      0   2 -0.550000     3.443273300     8.055165339     9.400152617
    339      0   2 -0.550000     4.151293560     9.910034130    14.852130527
    340      0   2 -0.550000    14.562585418    16.273365929     4.709009680
    341      0   2 -0.550000    18.858528046    12.432247644    10.983556200
    342      0   2 -0.550000     3.783650905     1.051813107    15.505265917
    343      0   2 -0.550000     1.126975469    13.274187530    16.810686787
    344      0   2 -0.550000     4.220554335     4.819327326    19.293785660
    345      0   2 -0.550000    10.455516917     4.147549163     3.412488963
    346      0   2 -0.550000    13.331573107     0.536105054     5.469867871
    347      0   1  1.100000     5.233664905     8.371540432    19.783225088
    348      0   1  1.100000     4.113155769     5.611962868    14.979188116
    349      0   1  1.100000     4.246234942    12.426033049     2.327282486
    350      0   1  1.100000    17.987124133    17.870527844    12.549749774
    351      0   1  1.100000    15.662009885     9.113089859     2.200483810
    352      0   1  1.100000     3.840394122     0.880106532     6.808041653
    353      0   1  1.100000     3.266452662    17.538657628    14.757911333
    354      0   1  1.100000     0.102331405     3.344970022     3.626116539
    355      0   2 -0.550000    19.577743641    17.938103070     4.637642419
    356      0   2 -0.550000    18.700857402    19.314888276    12.378946353
    357      0   3 -0.675000     4.197776489    10.926899480    21.863975163
    358      0   2 -0.550000     4.996654020     0.287282363    21.891832288
    359      0   2 -0.550000     3.040129489    11.962699402    13.494252933
    360      0   2 -0.550000     0.508788638     3.333766959     7.234834209
    361      0   2 -0.550000    17.428079450     4.819782956    16.732308458
    362      0   2 -0.550000     8.356407151    14.847732010    11.828316443
    363      0   2 -0.550000     1.625673414     6.721635341     4.601404376
    364      0   2 -0.550000    -0.221328344     0.580076814    14.095002661
    365      0   2 -0.550000    14.617454336    16.493659909    17.244623035
    366      0   2 -0.550000    14.465266018     2.958993754    17.188696307
    367      0   2 -0.550000    40.487334804     0.255736454    20.518042770
    368      0   2 -0.550000    11.484471326     0.822528539     3.724230693
    369      0   2 -0.550000     0.779337132    18.696681203     8.565260461
    370      0   1  1.100000     1.427268144    17.303324157     8.877143961
    371      0   1  1.100000    10.041443897    20.464252412     4.115955594
    372      0   1  1.100000     4.713039758    15.184201741    15.898383886
    373      0   1  1.100000    18.264692278     6.264806459    10.975836285
    374      0   1  1.100000     2.157884827    18.993500018     2.420391447
    375      0   1  1.100000    11.328735055     5.291403141     2.587866281
    376      0   1  1.100000     7.104552870     1.012054997    19.293927781