LAMMPS 2005 data file for silica_Q3_amorph_18p

   2928 atoms
   3706 bonds
   7190 angles
  10614 dihedrals
   3568 impropers

   5 atom types
   3 bond types
   5 angle types
   4 dihedral types
   3 improper types

     0.000000000    40.314800000 xlo xhi
     0.000000000    41.432000000 ylo yhi
     0.000000000    53.607900000 zlo zhi

Masses

   1  28.086000
   2  15.999400
   3  15.999400
   4  22.989771
   5   1.008000

Pair Coeffs

   1   0.0800000000   4.2000000000 
   2   0.0400000000   3.6000000000 
   3   0.1200000000   3.6000000000 
   4   0.0800000000   3.3000000000 
   5   0.0130000000   1.0980000000 

Bond Coeffs

  1     1.6800   285.0000     0.0000     0.0000 
  2     1.6800   285.0000     0.0000     0.0000 
  3     0.9450   495.0000     0.0000     0.0000 

Angle Coeffs

  1   109.5000   100.0000     0.0000     0.0000 
  2   109.5000   100.0000     0.0000     0.0000 
  3   149.0000   100.0000     0.0000     0.0000 
  4   115.0000    50.0000     0.0000     0.0000 
  5   109.5000   100.0000     0.0000     0.0000 

Atoms

      1      0   1  1.100000    15.589761104    20.214587226    12.337627259
      2      0   1  1.100000    14.384947865     7.068172505     9.987733669
      3      0   1  1.100000    18.620042388    13.996570578    15.529383936
      4      0   1  1.100000    17.059164773    14.433146370    10.168021084
      5      0   1  1.100000     8.499788668     2.215763416    11.033163103
      6      0   1  1.100000    17.846601729     2.101258602     7.691868566
      7      0   1  1.100000    13.690836357     2.477025689    15.346111094
      8      0   2 -0.550000     8.587749821    19.835694592     9.908902617
      9      0   2 -0.550000    14.195373249     5.950897576     4.297754293
     10      0   2 -0.550000    12.408284152    12.734087215     0.187991037
     11      0   2 -0.550000     8.099188007     3.107057414     5.285326621
     12      0   2 -0.550000    16.485654151    17.973187688     5.993831547
     13      0   2 -0.550000     1.925826026    18.944178798    14.338921004
     14      0   2 -0.550000     3.842127899     5.163431901    10.469168210
     15      0   2 -0.550000     8.124101674     8.012845311     2.666734992
     16      0   2 -0.550000    17.897472918    17.623529439     8.042069143
     17      0   2 -0.550000    16.395485349    14.302207164     2.376726276
     18      0   2 -0.550000     9.375771086     2.092923710    -3.882915024
     19      0   2 -0.550000    11.969499477    10.120512632    13.764645183
     20      0   2 -0.550000    19.164158799     2.299686980     6.662354256
     21      0   2 -0.550000     0.316670553     0.431598463     5.704833956
     22      0   2 -0.550000     2.153065557    13.340825451     1.270136923
     23      0   1  1.100000     7.413705760     7.625056222     4.024749752
     24      0   1  1.100000    13.270612864     4.628197005     4.454209369
     25      0   1  1.100000    13.930054536     6.706700114    -2.723961314
     26      0   1  1.100000    14.434423510     7.543426725     3.917942461
     27      0   1  1.100000    17.782816124     1.001091263    10.803005677
     28      0   1  1.100000    16.688441174     5.744872152    -2.080806984
     29      0   1  1.100000     2.527898446     5.028914525     6.278032272
     30      0   1  1.100000    11.086339125     9.249721612     0.197419930
     31      0   2 -0.550000    13.385092888     2.568664954    13.761041489
     32      0   2 -0.550000    18.234900878     4.286797400     0.749585588
     33      0   2 -0.550000    10.206882645    17.234230728     4.452537862
     34      0   2 -0.550000    18.368231820     4.603076814    13.132427280
     35      0   2 -0.550000    15.350911333     8.676139733     0.318725647
     36      0   3 -0.675000    17.448740892     3.869292189    15.531230592
     37      0   2 -0.550000    20.211247435     2.327746648    10.251137653
     38      0   2 -0.550000    17.240463896     2.417235738    11.664150062
     39      0   2 -0.550000     2.963405224     3.718181292     5.442765545
     40      0   2 -0.550000    10.712834791    10.802501211     0.352708330
     41      0   2 -0.550000    10.181913822     2.570608420     0.578708599
     42      0   2 -0.550000    12.674580322     8.993283991     0.197108109
     43      0   2 -0.550000     8.848866359     2.175191208    -1.285793387
     44      0   2 -0.550000     0.001942717    16.986484220     9.369768747
     45      0   1  1.100000    17.496261689    13.060587043     5.597427398
     46      0   1  0.725000     1.362499201     8.050554165    -2.068374267
     47      0   1  1.100000    13.798473359    17.677472775    12.089802272
     48      0   1  1.100000    14.635152152    11.802554896     5.470599490
     49      0   1  1.100000     0.536832954    11.836837042    10.118153274
     50      0   1  1.100000     3.113777725    12.838991525     0.083372358
     51      0   1  1.100000     4.320986466    19.548948223    15.728974512
     52      0   1  1.100000    11.306107578     1.310259663    10.599290345
     53      0   2 -0.550000     3.374413190    14.505366321    10.387001643
     54      0   2 -0.550000    14.187456379    10.930090769    -0.794189878
     55      0   2 -0.550000    19.621686949     6.355261103     1.155238950
     56      0   2 -0.550000     2.387154056    16.764747790     7.701502030
     57      0   2 -0.550000    17.038954373     6.649821480     1.240751010
     58      0   2 -0.550000    17.116179688    16.855647125    -1.808894012
     59      0   2 -0.550000     5.332191932    19.158355574    -1.953927545
     60      0   2 -0.550000    -0.402472843    20.170521671    -2.408678204
     61      0   2 -0.550000     0.971606494     5.031780418     6.504847462
     62      0   2 -0.550000    14.561166129    16.568692058     8.438240780
     63      0   2 -0.550000    14.732966227     5.500234294    10.080385966
     64      0   2 -0.550000    18.986350461     6.441680966     6.281657250
     65      0   2 -0.550000     7.918254390    14.481818122     8.387875062
     66      0   2 -0.550000     6.048964116     1.558402243     4.332474617
     67      0   2 -0.550000    10.339079903     4.177959621    11.359097169
     68      0   1  1.100000    13.549700255    18.316461902    16.453842552
     69      0   1  1.100000    16.345376847     9.299793789    10.497042026
     70      0   1  1.100000     0.342063006    19.244711305    -1.346084245
     71      0   1  1.100000    14.741958795     9.148106820    14.168790260
     72      0   1  1.100000    13.940189606     4.130622712    10.091375271
     73      0   1  1.100000     1.787337594    14.577970294    10.387294572
     74      0   1  1.100000    15.014184344     1.200297042    -3.515628653
     75      0   1  1.100000    14.411390933    14.046482629    -3.815072972
     76      0   2 -0.550000    14.150248606    12.784128109    -2.817150122
     77      0   2 -0.550000     8.940011622     8.004509175    10.035340601
     78      0   3 -0.900000    11.586592958     9.278005015    -3.778655874
     79      0   2 -0.550000    -0.106967977     4.271724600    14.999771875
     80      0   2 -0.550000    13.115202590     5.851893931    14.899533189
     81      0   2 -0.550000    -0.174364388    14.243210315    14.755710958
     82      0   2 -0.550000     5.787968580    16.233497091     2.148827107
     83      0   2 -0.550000    16.105507848    10.245350287    14.220417605
     84      0   2 -0.550000     5.444068570    14.106042438     8.895176412
     85      0   2 -0.550000     8.406907400    18.690003925     5.400424262
     86      0   2 -0.550000     8.674274655    12.525311676    14.801564177
     87      0   2 -0.550000    10.134337564    17.226168643    13.122355982
     88      0   2 -0.550000     1.338282402    15.927849945    11.112482370
     89      0   2 -0.550000    13.915443574    11.339682697     4.086576371
     90      0   1  1.100000    10.099314391    16.685549254     2.977285436
     91      0   1  1.100000    13.003356652    11.144313047    16.044408129
     92      0   1  1.100000    16.768208103     8.642083834     5.279327710
     93      0   1  1.100000     7.665796779    10.881485544     1.874629528
     94      0   1  1.100000     8.143374524    10.810800913    -3.152131967
     95      0   1  1.100000    13.310047469    13.455377026     1.303983804
     96      0   1  1.100000    14.092998430     9.705917169     0.295454945
     97      0   1  1.100000     7.373460586    15.653066784     2.194152443
     98      0   2 -0.550000    12.270021802     2.992599002    -0.771257241
     99      0   2 -0.550000    13.787401158     9.073921509    12.740509950
    100      0   2 -0.550000     2.691202652    11.350211439    -0.278693208
    101      0   2 -0.550000     7.830660307    14.938685405     0.837860530
    102      0   2 -0.550000     2.581156752    14.382162553     6.827776460
    103      0   2 -0.550000    19.128562004    10.362621733     3.585920161
    104      0   2 -0.550000     1.754150941    14.051153769    13.145990314
    105      0   2 -0.550000    18.038248774    16.966235079    13.513629534
    106      0   2 -0.550000    17.041529096     5.346915126     5.385928130
    107      0   2 -0.550000    14.694470329    12.640269162     1.507418272
    108      0   2 -0.550000    17.506254553    12.994999963     9.762383995
    109      0   2 -0.550000    17.188299637    14.467345127     4.885780151
    110      0   2 -0.550000    16.285568244    14.555561702    -0.927780785
    111      0   2 -0.550000    13.589570593    14.933668788     0.707340319
    112      0   2 -0.550000    13.294518918    10.014991002     8.851363532
    113      0   1  1.100000    -0.606753108    11.239473005    12.822452464
    114      0   1  1.100000     2.533931065    12.905023641     6.341681558
    115      0   1  1.100000     0.592249166    15.044555789    13.516170858
    116      0   1  1.100000    15.135720643    17.657322449     3.069230631
    117      0   1  1.100000    13.087943208     9.926154178     7.253842757
    118      0   1  1.100000    18.148507842    17.523664436    -0.718784005
    119      0   1  1.100000    -0.047726521     5.908316992     7.334026360
    120      0   1  1.100000    18.147904805    12.399764011     8.437051335
    121      0   2 -0.550000     8.876207905    10.483302579    10.777797506
    122      0   2 -0.550000    16.247016982    12.024774263     5.376220734
    123      0   2 -0.550000     6.275701732     5.318870037     1.315572777
    124      0   2 -0.550000    13.086085082    15.010696551     9.779479783
    125      0   2 -0.550000     0.872907157     2.608692262     4.528472439
    126      0   2 -0.550000    15.564253483    14.665888737     9.798248669
    127      0   2 -0.550000     2.847906636    13.003820734    -3.637085470
    128      0   2 -0.550000    13.057790647    14.886467152    -3.894746677
    129      0   2 -0.550000     4.169648271     7.204190193     8.771559731
    130      0   2 -0.550000     5.378048128     4.794618995    -1.168813228
    131      0   2 -0.550000    12.184157360    13.744690883     7.687483275
    132      0   2 -0.550000    10.289225719    12.576131229     3.556769925
    133      0   2 -0.550000    17.820128050    13.285886029     7.153880351
    134      0   2 -0.550000    12.264149437    17.817343299    11.817045266
    135      0   2 -0.550000    17.278324077     8.981378285     9.284591066
    136      0   2 -0.550000     1.295041791    16.435738759    13.836965136
    137      0   1  1.100000     7.111962315    15.736907373    13.983613574
    138      0   1  1.100000     3.228930850     1.552901830     8.099490594
    139      0   1  1.100000    10.651168612     4.019659425    12.911066552
    140      0   1  1.100000    15.440047458     1.035732899     5.978056105
    141      0   1  1.100000    18.532467169    16.813459993     9.249396889
    142      0   1  1.100000    11.012427270    18.396973050    12.606547189
    143      0   1  1.100000    13.123975894    16.012844463    14.660917564
    144      0   1  1.100000    10.010232380    17.768321793    -3.393053898
    145      0   2 -0.550000     2.371831806    17.833543196     9.924901442
    146      0   2 -0.550000     5.575323704    15.758212034    10.988349212
    147      0   2 -0.550000    16.831235667     1.647623114     6.497746274
    148      0   2 -0.550000     8.675568752     6.741461467     0.536313448
    149      0   2 -0.550000    15.307752419     2.380727903    15.601254696
    150      0   2 -0.550000     6.814790944     6.177409391     3.828675829
    151      0   2 -0.550000    19.259182631     5.790393941     3.728999424
    152      0   2 -0.550000    -0.479699777    15.356146653    12.385103819
    153      0   2 -0.550000    17.286105951    18.111555355    15.686282744
    154      0   2 -0.550000    12.436251216     5.713558537     7.352884522
    155      0   2 -0.550000    11.717262690    10.571987440     2.799568375
    156      0   2 -0.550000     1.072697312    12.591799803     5.709397136
    157      0   2 -0.550000    13.225798632    16.813656494    16.038086343
    158      0   2 -0.550000     8.545407425    17.091374398    -3.299086453
    159      0   2 -0.550000     0.650196283    12.792576047    -2.300530457
    160      0   3 -0.675000     4.859042028     8.039917506    15.294198907
    161      0   1  1.100000     1.944550828    13.691286100    -2.530874930
    162      0   1  1.100000    19.305467615    15.753489361     1.537043955
    163      0   1  1.100000    17.844860169     9.549763952     7.974078421
    164      0   1  1.100000    10.981859711    12.203406092    -0.333101097
    165      0   1  1.100000    10.814767500    12.213476446    -3.367080195
    166      0   1  1.100000     0.897919113    20.064147901     1.644300348
    167      0   1  1.100000     3.111272900     6.486251942     3.677229490
    168      0   1  1.100000    18.221578792     5.882473243     0.499042087
    169      0   2 -0.550000     2.322661487     9.259095412     1.245364159
    170      0   2 -0.550000    14.954472975    10.296053234    -3.273072741
    171      0   2 -0.550000     9.509793669    11.341605377    -3.800208878
    172      0   2 -0.550000     8.205824247     0.998822288    14.470480872
    173      0   2 -0.550000    16.485785157     1.759314240    -3.143135745
    174      0   2 -0.550000     8.474234421     6.856154793    -2.039499019
    175      0   2 -0.550000     1.818255827    17.571676637    -4.119874533
    176      0   2 -0.550000    14.054676974    10.254800879     1.783067690
    177      0   3 -0.675000    14.783962754    13.509454048    -5.310398297
    178      0   2 -0.550000     7.995552416     5.882610972    12.266808198
    179      0   2 -0.550000    16.833774162     5.742054433     8.034124553
    180      0   2 -0.550000    11.179142735    11.840401616    -1.874632655
    181      0   2 -0.550000     1.297801827    14.784789726     8.915112193
    182      0   2 -0.550000    14.673590620    18.719573259    15.389498217
    183      0   1  1.100000    16.989323938    15.254888080     3.492062580
    184      0   1  1.100000    -0.139233078    20.177302251     6.878336486
    185      0   1  1.100000    11.091636070     4.106462666     9.964039977
    186      0   1  1.100000    13.209923963    15.952770268    -0.500643069
    187      0   1  1.100000     0.663771030     1.286501740     9.228127292
    188      0   1  1.100000    16.659541925    19.461684406     1.182873653
    189      0   1  1.100000    11.016860230    19.707968962    15.325052284
    190      0   2 -0.550000    17.104567932     8.761504114     6.815566199
    191      0   2 -0.550000     5.594522585     1.570715550    13.831225774
    192      0   2 -0.550000    15.881258703    16.404876437     3.721089510
    193      0   2 -0.550000     1.218752207    19.352532385     7.021484651
    194      0   2 -0.550000     0.628062167     7.296009443     7.678516250
    195      0   2 -0.550000     3.577849079    18.848978869     7.984589513
    196      0   2 -0.550000     6.071183623    17.559407733    -4.118978426
    197      0   2 -0.550000     8.532221047    16.724966587     2.539541922
    198      0   2 -0.550000    18.761711221    16.855903395     5.445437407
    199      0   2 -0.550000     4.706753142    12.801662812     0.126144875
    200      0   2 -0.550000    15.352502285    20.282495880     6.323152068
    201      0   2 -0.550000    16.065515639    18.176894416     1.896196518
    202      0   2 -0.550000     1.733304435    19.007760029    -2.118512595
    203      0   2 -0.550000    12.996224949     8.386858164     6.724702492
    204      0   2 -0.550000    17.978246547    11.635804121    12.748372116
    205      0   2 -0.550000    -0.045573755    17.378213133    15.597344697
    206      0   1  1.100000     2.626649166    16.273598849    -3.758237204
    207      0   1  1.100000     4.939883673     8.553642562     8.399739530
    208      0   1  0.725000    17.298150114     3.138453472    -3.201139011
    209      0   1  1.100000    18.354031845    16.998084428    15.122345975
    210      0   1  1.100000     4.423474912     4.260322809    11.720824053
    211      0   1  1.100000    18.575374032     4.691985053    14.743009687
    212      0   1  1.100000    -0.333042112     1.722497573     5.191628308
    213      0   1  1.100000     4.255460316     1.335685901    10.935004867
    214      0   2 -0.550000    17.102606192     8.906308027    -2.705338160
    215      0   3 -0.675000     2.174301343    12.953136696    15.410402068
    216      0   2 -0.550000     1.090872267     2.077539956    -2.528608574
    217      0   2 -0.550000     8.423617962     1.127257591     1.007481800
    218      0   2 -0.550000    16.296467835    12.051706754    -1.803834824
    219      0   2 -0.550000     8.312485517     3.782545654    10.684857778
    220      0   2 -0.550000    12.219699407    19.260123733    16.325732804
    221      0   2 -0.550000    12.138676835     7.003999589    12.816564054
    222      0   2 -0.550000    14.073949960    14.703965954    14.635401695
    223      0   2 -0.550000    19.724651860    12.203754245     8.705226599
    224      0   2 -0.550000    19.161158430     0.297437932    11.461733926
    225      0   3 -0.675000     1.091179575    10.362157772    15.712445456
    226      0   2 -0.550000     2.692159307    -0.251074717     1.468374904
    227      0   2 -0.550000    10.154817495     6.346534136     6.478354774
    228      0   2 -0.550000     6.319946301     3.839119802     3.403607160
    229      0   1  1.100000     2.798549261    19.604055849     6.872915407
    230      0   1  1.100000     6.044882411     9.622168903    -0.413834045
    231      0   1  1.100000     0.477214248     8.792369697     7.129704594
    232      0   1  1.100000     2.968208036     9.779148173    -0.107723764
    233      0   1  1.100000     6.472382919     4.448340528    -0.053501093
    234      0   1  1.100000    12.661010959     1.566277373    -1.530566803
    235      0   1  1.100000     2.474770511     2.789157942     4.212188575
    236      0   2 -0.550000     1.649789709     6.913506035    11.897572433
    237      0   2 -0.550000    17.252023510     9.228337047     2.064712499
    238      0   2 -0.550000    10.639677881     3.797223227     6.152885785
    239      0   2 -0.550000    -0.036459976     8.101690916     3.039812195
    240      0   2 -0.550000     2.697993324     2.075804859     0.514252660
    241      0   2 -0.550000    13.993576539    12.275538625    15.541763592
    242      0   2 -0.550000     9.963891108     1.669316073    11.366550629
    243      0   2 -0.550000    18.512902526     1.722364560     1.429910229
    244      0   2 -0.550000     7.797887231    18.869015906     7.838822890
    245      0   2 -0.550000    17.870003904     6.158805272    -1.044608801
    246      0   2 -0.550000    11.457370083    19.295039954    13.843407918
    247      0   2 -0.550000    15.173655527     7.541907596     2.531460321
    248      0   2 -0.550000     0.195667062    12.060707993     0.318240247
    249      0   2 -0.550000     4.022173703     2.815926316     7.649437637
    250      0   2 -0.550000    13.204024472     4.037327227     5.976995255
    251      0   2 -0.550000     1.701739375     6.116044527     2.939663147
    252      0   1  1.100000     5.788892547     9.480949974     5.633830944
    253      0   1  1.100000    13.533536901     6.945038041     7.183084298
    254      0   1  1.100000     7.354595515     5.013326884    11.073276843
    255      0   1  1.100000    17.939262865     7.973271511    12.435952801
    256      0   1  1.100000    10.264421428    10.311824746     6.433815877
    257      0   1  1.100000     1.678890473    15.403281966     7.533962916
    258      0   1  1.100000     9.945547838     0.985163728     0.925389177
    259      0   1  1.100000     7.685126794    11.608525272     6.398913646
    260      0   2 -0.550000     6.468895309     8.318653001    -1.240028462
    261      0   2 -0.550000     3.945424816    10.505500198     2.633762696
    262      0   2 -0.550000     8.024633072     7.165752323     7.684900950
    263      0   2 -0.550000     5.919280842    14.208879327     5.156556339
    264      0   2 -0.550000     6.393222430     8.473840299     9.122320596
    265      0   2 -0.550000    13.667082789    17.312885790     2.506703468
    266      0   2 -0.550000    12.673296864    17.304832967     0.145954562
    267      0   2 -0.550000     5.020053147    12.733410990     3.380780108
    268      0   2 -0.550000    17.335555158    14.987283933    11.654738381
    269      0   2 -0.550000    17.350210314     9.240913049    11.702271000
    270      0   2 -0.550000    16.749087225     6.965963283    12.218090162
    271      0   2 -0.550000     3.594497251    12.911204808     5.224588849
    272      0   2 -0.550000    15.331640597     8.166758041     5.027734424
    273      0   2 -0.550000    12.866064565     3.668254780    16.173626704
    274      0   2 -0.550000     1.786661403     1.918888892     8.387651361
    275      0   2 -0.550000    10.338234987    18.153141469     9.267653042
    276      0   1  1.100000    16.265239320     8.050592227     1.506842019
    277      0   1  1.100000     6.810592458    13.328424501     8.701238187
    278      0   1  1.100000     4.420059705     1.468714171    14.912265005
    279      0   1  1.100000    18.271226744    16.191064944    12.103589308
    280      0   1  1.100000    17.283384876     4.102021082    12.052433692
    281      0   1  1.100000     1.558574539    17.455643827    14.986338683
    282      0   1  1.100000    15.643960234     6.312656391    13.102498356
    283      0   1  1.100000    13.802910542    10.996019558    10.030507817
    284      0   2 -0.550000    12.825432624    10.807077258    11.307595114
    285      0   2 -0.550000    -0.192411701     8.512618901    -2.166569524
    286      0   2 -0.550000    16.157873777    -0.126984332    16.091834269
    287      0   2 -0.550000     3.831474844     2.754142217    11.553874521
    288      0   2 -0.550000    14.823812870     6.397851749     6.443872504
    289      0   2 -0.550000     9.845491790    16.177255452     7.549934451
    290      0   2 -0.550000    11.740278100    10.673404391     6.879318393
    291      0   2 -0.550000    14.255000654     6.001197254    12.560588044
    292      0   2 -0.550000    10.746256257     6.821616987    -3.152157690
    293      0   2 -0.550000    17.989186874    15.336598006     9.227811885
    294      0   2 -0.550000     4.211261176    19.328499640    14.137377482
    295      0   2 -0.550000    15.360028738    10.604012670    10.375710802
    296      0   2 -0.550000    12.540112208     1.179749131    11.646116895
    297      0   2 -0.550000     2.510197394     4.631747489     0.092130909
    298      0   2 -0.550000    15.451654484     8.010262909    10.651491979
    299      0   1  0.725000    18.624003920     9.483568014    -2.644693579
    300      0   1  1.100000    17.028852755    13.164817276    -0.927690020
    301      0   1  1.100000     5.900055447     5.258197475     2.892927246
    302      0   1  1.100000    -0.009379328    13.011856773     4.557367083
    303      0   1  1.100000    19.616228585    12.246817124    -1.573732641
    304      0   1  1.100000     9.674928036     3.078909905     4.958577623
    305      0   1  1.100000    10.301593372    10.968457166     3.419468714
    306      0   1  1.100000     0.167869686     9.327358209     4.035939801
    307      0   2 -0.550000    10.596028638    15.147196152     2.862991994
    308      0   2 -0.550000     0.408198044    12.469434147     3.076328226
    309      0   2 -0.550000     9.871461431     8.872583051     7.019297800
    310      0   2 -0.550000    18.360161671    16.437606695     0.437503944
    311      0   2 -0.550000     7.572815148     3.338671807    -2.791606919
    312      0   2 -0.550000     7.370707335    11.807871908    12.549674093
    313      0   2 -0.550000     5.922602927    12.260329577    14.578280003
    314      0   2 -0.550000     7.010248086    14.247159235    13.412406619
    315      0   2 -0.550000     1.835762310     9.623617125     7.344528137
    316      0   2 -0.550000    12.897833509     5.510008130    -3.313818109
    317      0   2 -0.550000    15.319311634     7.511019993    14.279684934
    318      0   2 -0.550000    13.948756600     1.247798364     1.934360406
    319      0   2 -0.550000    12.591715256    13.506282260     2.750257113
    320      0   2 -0.550000    -0.477809396    14.204158310     1.389965958
    321      0   2 -0.550000    19.443646214     9.457478058     7.910394969
    322      0   2 -0.550000    17.064308776    12.666798788     0.538100702
    323      0   1  1.100000     2.664072781    10.573283294     8.344008130
    324      0   1  1.100000    12.785181384    14.158114786     6.248102537
    325      0   1  1.100000    17.768842097     4.876942116     8.993404296
    326      0   1  1.100000     4.413025419    16.457748780     3.069059722
    327      0   1  1.100000    16.059291166     5.413069550     6.661512142
    328      0   1  1.100000     4.589939955    13.801245344     4.400700357
    329      0   1  1.100000     0.538419589     9.284438042    14.609829879
    330      0   1  1.100000     7.315404060    18.272352948     6.497570728
    331      0   2 -0.550000     6.231453949     8.542434705     4.462478663
    332      0   2 -0.550000    10.618532642    18.543548038     6.640502954
    333      0   2 -0.550000     0.562821445    11.989106029    13.657250481
    334      0   2 -0.550000     4.970084676    10.607019273     4.915654344
    335      0   2 -0.550000    17.535489022    18.882134554    -0.056251729
    336      0   2 -0.550000    13.778568040    17.066434583    13.587569830
    337      0   2 -0.550000     6.559429431    10.726963100     2.983988528
    338      0   2 -0.550000     3.449049294     8.019997909     3.317585457
    339      0   2 -0.550000     4.021885136     9.814795898     8.812535048
    340      0   2 -0.550000    14.530718329    16.352719609    -1.303928556
    341      0   2 -0.550000    18.861813016    12.480906068     4.978812401
    342      0   2 -0.550000     3.624520614     0.994401846     9.524904751
    343      0   2 -0.550000     1.086382326    13.198957398    10.784759471
    344      0   2 -0.550000     4.187783437     4.804978469    13.270802803
    345      0   2 -0.550000    10.335436289     4.212650904    -2.691711237
    346      0   2 -0.550000    13.118244673     0.429585025    -0.477232525
    347      0   1  1.100000     5.148028332     8.409536707    13.726706269
    348      0   1  1.100000     4.148926935     5.593355791     8.895322855
    349      0   1  1.100000     4.315793654    12.479575843    -3.722001811
    350      0   1  1.100000    18.001459537    17.933424269     6.456908470
    351      0   1  1.100000    15.792209002     8.985851734    -3.674155601
    352      0   1  1.100000     3.654720122     0.802521686     0.807488023
    353      0   1  1.100000     3.268695392    17.531949965     8.698443377
    354      0   1  1.100000     0.042344009     3.153927083    -2.190613224
    355      0   2 -0.550000    19.587492078    17.905962982    -1.307986381
    356      0   2 -0.550000    18.719845238    19.363242127     6.359546954
    357      0   3 -0.675000     4.086747737    10.923809692    15.787963854
    358      0   2 -0.550000     4.891367738     0.298907016    15.883512057
    359      0   2 -0.550000     2.982212815    11.931475835     7.547996675
    360      0   2 -0.550000     0.477657832     3.393699879     1.344641692
    361      0   2 -0.550000    17.442980325     4.955225206    10.625602103
    362      0   2 -0.550000     8.413559423    14.797304639     5.811424879
    363      0   2 -0.550000     1.600414441     6.729094493    -1.250946408
    364      0   2 -0.550000    -0.221271636     0.461999018     8.162712671
    365      0   2 -0.550000    14.567831763    16.690364600    11.090448567
    366      0   2 -0.550000    14.357410332     3.082687037    11.290553017
    367      0   2 -0.550000    40.492408934     0.242510361    14.439511792
    368      0   2 -0.550000    11.404715291     0.824400297    -2.302846935
    369      0   2 -0.550000     0.760758489    18.696461449     2.434483839
    370      0   1  1.100000     1.421144435    17.303241905     2.837340911
    371      0   1  1.100000     9.972751003    20.375994525    -1.727071202
    372      0   1  1.100000     4.706922122    15.177711064     9.815065229
    373      0   1  1.100000    18.271127072     6.211744629     4.926705744
    374      0   1  1.100000     2.160416498    19.028612751    -3.673634613
    375      0   1  1.100000    11.238056798     5.345500837    -3.560851937