LAMMPS 2005 data file for Q3_a_9pct_ionized

   2928 atoms
   3720 bonds
   7204 angles
  10656 dihedrals
   3568 impropers

   5 atom types
   3 bond types
   5 angle types
   4 dihedral types
   3 improper types

     0.000000000    40.314800000 xlo xhi
     0.000000000    41.432000000 ylo yhi
     0.000000000    53.607900000 zlo zhi

Masses

   1  28.086000
   2  15.999400
   3  15.999400
   4   1.008000
   5  22.989771

Pair Coeffs

   1   0.0800000000   4.2000000000 
   2   0.0400000000   3.6000000000 
   3   0.1200000000   3.6000000000 
   4   0.0130000000   1.0980000000 
   5   0.0800000000   3.3000000000 

Bond Coeffs

  1     1.6800   285.0000     0.0000     0.0000 
  2     1.6800   285.0000     0.0000     0.0000 
  3     0.9450   495.0000     0.0000     0.0000 

Angle Coeffs

  1   109.5000   100.0000     0.0000     0.0000 
  2   109.5000   100.0000     0.0000     0.0000 
  3   149.0000   100.0000     0.0000     0.0000 
  4   115.0000    50.0000     0.0000     0.0000 
  5   109.5000   100.0000     0.0000     0.0000 

Atoms

      1      0   1  1.100000    15.554600884    20.165733710    12.343776562
      2      0   1  1.100000    14.465340618     7.043409873     9.979722344
      3      0   1  1.100000    18.594087212    14.004527345    15.594449824
      4      0   1  1.100000    17.108645119    14.462776987    10.193479533
      5      0   1  1.100000     8.515191164     2.210324492    11.041773888
      6      0   1  1.100000    17.852022778     2.100655640     7.728943577
      7      0   1  1.100000    13.728627825     2.510362391    15.373366592
      8      0   2 -0.550000     8.595880576    19.850505745     9.879397701
      9      0   2 -0.550000    14.184869714     5.979197559     4.333684337
     10      0   2 -0.550000    12.392598671    12.675681479     0.214040655
     11      0   2 -0.550000     8.110296987     3.107236144     5.271205505
     12      0   2 -0.550000    16.479845637    17.968331650     6.003666357
     13      0   2 -0.550000     1.925113981    18.889200452    14.252609514
     14      0   2 -0.550000     3.885569131     5.140694898    10.445032891
     15      0   2 -0.550000     8.138238963     8.013268469     2.666926927
     16      0   2 -0.550000    17.934164767    17.633820070     8.047425000
     17      0   2 -0.550000    16.386222196    14.265090795     2.405015941
     18      0   2 -0.550000     9.430549457     2.127391250    -3.893185470
     19      0   2 -0.550000    11.987799980    10.085213071    13.718311897
     20      0   2 -0.550000    19.166249496     2.301259819     6.685114170
     21      0   2 -0.550000     0.281503877     0.506423602     5.657759668
     22      0   2 -0.550000     2.161647473    13.335408184     1.284218118
     23      0   1  1.100000     7.400643359     7.609296453     4.001536018
     24      0   1  1.100000    13.284206500     4.647557703     4.472949730
     25      0   1  1.100000    14.005026078     6.706149067    -2.737772867
     26      0   1  1.100000    14.414346315     7.563020522     3.937843960
     27      0   1  1.100000    17.804923467     0.989588840    10.835526222
     28      0   1  1.100000    16.822002485     5.798556849    -2.125051808
     29      0   1  1.100000     2.566945624     5.063402051     6.256357818
     30      0   1  1.100000    11.101021422     9.206377679     0.206085702
     31      0   2 -0.550000    13.458806428     2.611555704    13.778323224
     32      0   2 -0.550000    18.177821876     4.281318706     0.881349848
     33      0   2 -0.550000    10.202572591    17.254539045     4.416892353
     34      0   2 -0.550000    18.410776524     4.533131102    13.191730741
     35      0   2 -0.550000    15.356722471     8.714876950     0.323287414
     36      0   3 -0.675000    17.492777333     3.712400170    15.543565216
     37      0   2 -0.550000    20.285157761     2.360376414    10.289250691
     38      0   2 -0.550000    17.266483694     2.398648808    11.699047833
     39      0   2 -0.550000     3.006677827     3.755609566     5.415874977
     40      0   2 -0.550000    10.689894076    10.752518373     0.315320815
     41      0   2 -0.550000    10.224575621     2.556429959     0.580715139
     42      0   2 -0.550000    12.685844989     8.984997325     0.190080762
     43      0   2 -0.550000     8.885365803     2.164923114    -1.297915906
     44      0   2 -0.550000    -0.006922875    16.979543815     9.343457330
     45      0   1  1.100000    17.513481659    13.054690764     5.663511371
     46      0   1  0.725000     1.409107430     8.090755348    -2.155994363
     47      0   1  1.100000    13.774100777    17.627824225    12.114511368
     48      0   1  1.100000    14.662874734    11.790553893     5.480648208
     49      0   1  1.100000     0.570692557    11.840898993    10.095874971
     50      0   1  1.100000     3.099345151    12.817514435     0.089657495
     51      0   1  1.100000     4.303985589    19.464063344    15.703493075
     52      0   1  1.100000    11.313573400     1.316427251    10.628127074
     53      0   2 -0.550000     3.386107304    14.531048640    10.340073290
     54      0   2 -0.550000    14.160510315    10.948162799    -0.803022614
     55      0   2 -0.550000    19.574616891     6.333042483     1.226300573
     56      0   2 -0.550000     2.359495895    16.804312856     7.665504412
     57      0   2 -0.550000    16.957624231     6.638384398     1.244873238
     58      0   2 -0.550000    17.099949169    16.861711168    -1.804876417
     59      0   2 -0.550000     5.277601055    19.114303394    -1.947693556
     60      0   2 -0.550000    -0.439179852    20.164046406    -2.405784693
     61      0   2 -0.550000     1.012319457     5.063279713     6.483975005
     62      0   2 -0.550000    14.587913002    16.632427636     8.497067594
     63      0   2 -0.550000    14.778276215     5.470031198    10.074923137
     64      0   2 -0.550000    18.983203000     6.433520655     6.344032462
     65      0   2 -0.550000     7.891477715    14.499546218     8.300646905
     66      0   2 -0.550000     6.059614236     1.560809894     4.271672257
     67      0   2 -0.550000    10.359343504     4.160901790    11.394979269
     68      0   1  1.100000    13.575643257    18.243034733    16.450236703
     69      0   1  1.100000    16.417032495     9.290057153    10.555430227
     70      0   1  1.100000     0.293883935    19.232735483    -1.336609453
     71      0   1  1.100000    14.781889683     9.142866798    14.157983783
     72      0   1  1.100000    13.948549573     4.116344991    10.102655649
     73      0   1  1.100000     1.794212909    14.593029828    10.348534673
     74      0   1  1.100000    15.040049660     1.284236604    -3.615490235
     75      0   1  1.100000    14.371131115    14.062984159    -3.818374992
     76      0   2 -0.550000    14.113321802    12.815468397    -2.805948414
     77      0   2 -0.550000     8.964487614     7.984644498    10.012291305
     78      0   3 -0.675000    11.624480247     9.228392583    -3.654991745
     79      0   2 -0.550000    -0.136361245     4.270967428    15.020413979
     80      0   2 -0.550000    13.146748640     5.919835057    14.875489485
     81      0   2 -0.550000    -0.150003438    14.220721672    14.702586562
     82      0   2 -0.550000     5.765329583    16.243204353     2.101648247
     83      0   2 -0.550000    16.159797387    10.236532292    14.234067267
     84      0   2 -0.550000     5.426836318    14.122041257     8.807313831
     85      0   2 -0.550000     8.463405600    18.784852964     5.355498281
     86      0   2 -0.550000     8.728366360    12.496173351    14.682810012
     87      0   2 -0.550000    10.154976934    17.217078518    13.176797863
     88      0   2 -0.550000     1.344327115    15.942957287    11.082163264
     89      0   2 -0.550000    14.039313270    11.286584851     4.067738936
     90      0   1  1.100000    10.087342556    16.717551843     2.933218820
     91      0   1  1.100000    13.025812119    11.123855940    16.016119978
     92      0   1  1.100000    16.753369859     8.640210016     5.329526483
     93      0   1  1.100000     7.671415252    10.883640834     1.871271778
     94      0   1  1.100000     8.146885136    10.796206441    -3.223368409
     95      0   1  1.100000    13.291072727    13.448953404     1.302297747
     96      0   1  1.100000    14.088107489     9.727329692     0.294155905
     97      0   1  1.100000     7.356007923    15.664234220     2.137825453
     98      0   2 -0.550000    12.323342822     3.010540694    -0.775943155
     99      0   2 -0.550000    13.848380751     9.085422283    12.713747091
    100      0   2 -0.550000     2.659779717    11.337990573    -0.236145105
    101      0   2 -0.550000     7.811845053    14.934331489     0.788279853
    102      0   2 -0.550000     2.590012812    14.416376050     6.786107492
    103      0   2 -0.550000    19.136310403    10.346340052     3.623358079
    104      0   2 -0.550000     1.756374512    13.994540779    13.095948341
    105      0   2 -0.550000    18.102006216    17.010380805    13.531669952
    106      0   2 -0.550000    17.049972506     5.311124031     5.440159057
    107      0   2 -0.550000    14.677603902    12.632326186     1.521533839
    108      0   2 -0.550000    17.560900528    13.010328486     9.828768244
    109      0   2 -0.550000    17.171953120    14.447334560     4.936407502
    110      0   2 -0.550000    16.261507975    14.558244491    -0.924432104
    111      0   2 -0.550000    13.554425244    14.924242227     0.682183482
    112      0   2 -0.550000    13.339752648     9.983920049     8.870139738
    113      0   1  1.100000    -0.550315401    11.191800413    12.789745063
    114      0   1  1.100000     2.552212587    12.937831271     6.316847237
    115      0   1  1.100000     0.601538199    14.995709263    13.444281826
    116      0   1  1.100000    15.123915005    17.638108410     3.063597541
    117      0   1  1.100000    13.087977447     9.913292526     7.282362386
    118      0   1  1.100000    18.142102312    17.520226628    -0.718464830
    119      0   1  1.100000    -0.001648833     5.955143222     7.296251361
    120      0   1  1.100000    18.197312845    12.394914723     8.513471564
    121      0   2 -0.550000     8.909682296    10.475816747    10.689764388
    122      0   2 -0.550000    16.278976439    12.003605807     5.474366315
    123      0   2 -0.550000     6.266560442     5.312743900     1.268520020
    124      0   2 -0.550000    13.139023898    14.995374984     9.745844085
    125      0   2 -0.550000     0.890477424     2.682066445     4.503535722
    126      0   2 -0.550000    15.627596188    14.691733716     9.777739970
    127      0   2 -0.550000     2.756994026    12.998967962    -3.623781200
    128      0   2 -0.550000    13.014323028    14.892539450    -3.916700433
    129      0   2 -0.550000     4.217176021     7.229550166     8.797931616
    130      0   2 -0.550000     5.420534040     4.731582621    -1.219879017
    131      0   2 -0.550000    12.272947376    13.697577263     7.657983625
    132      0   2 -0.550000    10.296278744    12.608438417     3.639015269
    133      0   2 -0.550000    17.896025087    13.286906674     7.214929645
    134      0   2 -0.550000    12.247221133    17.767306375    11.818076124
    135      0   2 -0.550000    17.399565420     9.021411954     9.368082549
    136      0   2 -0.550000     1.301163269    16.389532545    13.743523258
    137      0   1  1.100000     7.138529406    15.701694772    13.885911506
    138      0   1  1.100000     3.255984091     1.598321346     8.127557655
    139      0   1  1.100000    10.686921877     3.996094770    12.945743474
    140      0   1  1.100000    15.442257891     1.053810447     5.984149972
    141      0   1  1.100000    18.577882491    16.846856855     9.275250911
    142      0   1  1.100000    11.006544759    18.374181629    12.598374875
    143      0   1  1.100000    13.097281355    15.958839241    14.667652355
    144      0   1  1.100000     9.917369243    17.728995625    -3.506385844
    145      0   2 -0.550000     2.370110279    17.861522748     9.894111593
    146      0   2 -0.550000     5.610361972    15.770982378    10.885701173
    147      0   2 -0.550000    16.813804722     1.696968105     6.530846350
    148      0   2 -0.550000     8.691103907     6.731241291     0.531491432
    149      0   2 -0.550000    15.339415259     2.343329850    15.671667143
    150      0   2 -0.550000     6.844156273     6.153896858     3.778785695
    151      0   2 -0.550000    19.257629306     5.780573336     3.797408827
    152      0   2 -0.550000    -0.479395802    15.294607733    12.324949968
    153      0   2 -0.550000    17.410329513    18.169123431    15.691842429
    154      0   2 -0.550000    12.439672893     5.718062753     7.366922194
    155      0   2 -0.550000    11.747910414    10.655383187     2.831433471
    156      0   2 -0.550000     1.087042538    12.607336149     5.695352989
    157      0   2 -0.550000    13.155403374    16.767218350    16.046073208
    158      0   2 -0.550000     8.479657511    17.003492401    -3.326317725
    159      0   2 -0.550000     0.573176175    12.725464925    -2.236261700
    160      0   3 -0.675000     5.043594974     8.034265880    15.324721567
    161      0   1  1.100000     1.848349184    13.650674087    -2.497620561
    162      0   1  1.100000    19.269322090    15.744210338     1.556325274
    163      0   1  1.100000    17.872894383     9.566501299     8.015641565
    164      0   1  1.100000    10.972310961    12.171223752    -0.352186487
    165      0   1  1.100000    10.836638680    12.213626377    -3.394541935
    166      0   1  1.100000     0.895904344    20.084475217     1.635134378
    167      0   1  1.100000     3.131112312     6.510475928     3.647014476
    168      0   1  1.100000    18.176577932     5.852656873     0.578010786
    169      0   2 -0.550000     2.306134185     9.248587995     1.230006630
    170      0   2 -0.550000    14.865870963    10.325655981    -3.285847752
    171      0   2 -0.550000     9.549832948    11.305025358    -3.822730791
    172      0   2 -0.550000     8.245780273     0.984145707    14.476163581
    173      0   2 -0.550000    16.516696657     1.875233871    -3.364141251
    174      0   2 -0.550000     8.517532980     6.861734850    -2.042187878
    175      0   2 -0.550000     1.738633912    17.534536810    -4.089055774
    176      0   2 -0.550000    14.040750252    10.268077958     1.780788102
    177      0   3 -0.675000    14.793377936    13.530321811    -5.302006301
    178      0   2 -0.550000     8.044731615     5.909865813    12.267290619
    179      0   2 -0.550000    16.860114740     5.723362712     8.077430461
    180      0   2 -0.550000    11.201913259    11.818204969    -1.898664336
    181      0   2 -0.550000     1.309054141    14.801720985     8.868866650
    182      0   2 -0.550000    14.762382649    18.519541912    15.413861017
    183      0   1  1.100000    16.970415073    15.221126327     3.525009040
    184      0   1  1.100000    -0.164164953    20.201430706     6.873575727
    185      0   1  1.100000    11.098277636     4.108679483     9.993190904
    186      0   1  1.100000    13.177720899    15.955927723    -0.521631146
    187      0   1  1.100000     0.682070309     1.343824462     9.241804627
    188      0   1  1.100000    16.665148632    19.459740735     1.191832445
    189      0   1  1.100000    11.095765631    19.729229884    15.285601249
    190      0   2 -0.550000    17.073070121     8.792267894     6.876824191
    191      0   2 -0.550000     5.621630859     1.581996847    13.843804318
    192      0   2 -0.550000    15.848531256    16.369201329     3.725126925
    193      0   2 -0.550000     1.202125438    19.392753234     7.002789726
    194      0   2 -0.550000     0.667778242     7.341600640     7.652101171
    195      0   2 -0.550000     3.559445479    18.886506994     7.954025763
    196      0   2 -0.550000     5.981711601    17.495980304    -4.098887404
    197      0   2 -0.550000     8.515317443    16.741957040     2.483644862
    198      0   2 -0.550000    18.755434263    16.863047665     5.420504808
    199      0   2 -0.550000     4.689391359    12.769664742     0.107859822
    200      0   2 -0.550000    15.364813187    20.281836620     6.290144281
    201      0   2 -0.550000    16.076882891    18.169780161     1.912166374
    202      0   2 -0.550000     1.680587807    18.981072278    -2.101689178
    203      0   2 -0.550000    13.025713384     8.380124492     6.728584996
    204      0   2 -0.550000    18.131854089    11.752263377    12.923364634
    205      0   2 -0.550000     0.000924423    17.305154825    15.531816654
    206      0   1  1.100000     2.522127390    16.229385191    -3.703599973
    207      0   1  1.100000     4.970498774     8.578219270     8.386848166
    208      0   1  1.100000    17.334710394     3.254814186    -3.501082139
    209      0   1  1.100000    18.440866740    17.027359445    15.134760011
    210      0   1  1.100000     4.453007645     4.245049571    11.712593299
    211      0   1  1.100000    18.596328487     4.591584560    14.811209036
    212      0   1  1.100000    -0.333523826     1.826782371     5.161069361
    213      0   1  1.100000     4.305746975     1.311450675    10.938367706
    214      0   2 -0.550000    17.110375529     8.927677087    -3.044014157
    215      0   3 -0.675000     2.167351120    12.995354326    15.398278054
    216      0   2 -0.550000     1.107739446     2.116828717    -2.658210240
    217      0   2 -0.550000     8.459009841     1.084155120     0.965668522
    218      0   2 -0.550000    16.272013447    12.066438288    -1.820954165
    219      0   2 -0.550000     8.328901994     3.780874282    10.705395620
    220      0   2 -0.550000    12.324216400    19.289001017    16.268348697
    221      0   2 -0.550000    12.175786573     7.019440205    12.773118218
    222      0   2 -0.550000    14.073421926    14.669531629    14.621335330
    223      0   2 -0.550000    19.769122081    12.123765088     8.811129612
    224      0   2 -0.550000    19.184964650     0.277353977    11.490648579
    225      0   3 -0.675000     0.839335698    10.388817336    15.797024944
    226      0   2 -0.550000     2.677372750    -0.209635443     1.407895304
    227      0   2 -0.550000    10.120826669     6.327378014     6.474362823
    228      0   2 -0.550000     6.324804542     3.833912858     3.366982030
    229      0   1  1.100000     2.780778686    19.636911513     6.842136611
    230      0   1  1.100000     6.037716782     9.598346184    -0.421564353
    231      0   1  1.100000     0.502650969     8.835990888     7.094714502
    232      0   1  1.100000     2.945323507     9.770590147    -0.115232174
    233      0   1  1.100000     6.498988553     4.422868474    -0.079873478
    234      0   1  1.100000    12.739651082     1.603542531    -1.570372529
    235      0   1  1.100000     2.498473632     2.842957909     4.175857625
    236      0   2 -0.550000     1.694921306     6.947078185    12.046242858
    237      0   2 -0.550000    17.264653434     9.185475760     2.108107661
    238      0   2 -0.550000    10.637717557     3.783820604     6.184421679
    239      0   2 -0.550000    -0.008531071     8.130343924     3.000775749
    240      0   2 -0.550000     2.666201262     2.134734826     0.477633737
    241      0   2 -0.550000    14.011905956    12.250907733    15.515300801
    242      0   2 -0.550000     9.970880139     1.663993769    11.385115513
    243      0   2 -0.550000    18.462821724     1.712582982     1.431387480
    244      0   2 -0.550000     7.793646291    18.971351903     7.771535269
    245      0   2 -0.550000    17.929450760     6.070489373    -0.982191331
    246      0   2 -0.550000    11.481141340    19.322483714    13.784628786
    247      0   2 -0.550000    15.132384414     7.573672460     2.542210978
    248      0   2 -0.550000     0.168399479    12.047221911     0.380913337
    249      0   2 -0.550000     4.060932215     2.858966033     7.691856166
    250      0   2 -0.550000    13.199706066     4.048797868     5.989827458
    251      0   2 -0.550000     1.724587744     6.138193635     2.900523612
    252      0   1  1.100000     5.769473091     9.471394346     5.588634717
    253      0   1  1.100000    13.559887479     6.937850499     7.191175650
    254      0   1  1.100000     7.379792486     5.017669904    11.095772349
    255      0   1  1.100000    17.933478365     7.941001186    12.551192781
    256      0   1  1.100000    10.263553751    10.294192536     6.451448681
    257      0   1  1.100000     1.679827419    15.431875528     7.490985553
    258      0   1  1.100000     9.992726422     0.966294643     0.911728272
    259      0   1  1.100000     7.684117462    11.605467038     6.334455175
    260      0   2 -0.550000     6.497192708     8.302939680    -1.247136910
    261      0   2 -0.550000     3.949128334    10.502540009     2.588407904
    262      0   2 -0.550000     8.008273405     7.135952309     7.681482046
    263      0   2 -0.550000     5.926622043    14.226999663     5.100801988
    264      0   2 -0.550000     6.421385917     8.491315391     9.110634215
    265      0   2 -0.550000    13.662351966    17.310026442     2.479223863
    266      0   2 -0.550000    12.664521007    17.318234341     0.123324830
    267      0   2 -0.550000     5.003810489    12.731331500     3.342829980
    268      0   2 -0.550000    17.331649669    15.042635030    11.680400181
    269      0   2 -0.550000    17.368637141     9.220160676    11.808929331
    270      0   2 -0.550000    16.779831040     6.927064121    12.258751277
    271      0   2 -0.550000     3.612756139    12.936054672     5.205381089
    272      0   2 -0.550000    15.307874693     8.200603346     5.044755708
    273      0   2 -0.550000    12.932989641     3.731981482    16.180389833
    274      0   2 -0.550000     1.824757972     1.986534024     8.439938827
    275      0   2 -0.550000    10.319985340    18.120301470     9.254518978
    276      0   1  1.100000    16.237772712     8.058326904     1.520941920
    277      0   1  1.100000     6.792188086    13.333578015     8.612016042
    278      0   1  1.100000     4.420230825     1.494454011    14.899548953
    279      0   1  1.100000    18.282388354    16.232580755    12.120735568
    280      0   1  1.100000    17.327078494     4.077177814    12.101034364
    281      0   1  1.100000     1.583909368    17.396055529    14.897278847
    282      0   1  1.100000    15.660941841     6.284784966    13.117031912
    283      0   1  1.100000    13.854707173    10.967406770    10.045591150
    284      0   2 -0.550000    12.848522884    10.795400696    11.293736884
    285      0   2 -0.550000    -0.159847208     8.506404048    -2.305389018
    286      0   2 -0.550000    16.179398713    -0.196443368    16.104425579
    287      0   2 -0.550000     3.890322919     2.728115130    11.576621388
    288      0   2 -0.550000    14.851403492     6.375846028     6.468866130
    289      0   2 -0.550000     9.836103120    16.158357019     7.512136624
    290      0   2 -0.550000    11.718721767    10.640705687     6.954854707
    291      0   2 -0.550000    14.284200056     5.974017076    12.555718385
    292      0   2 -0.550000    10.815937849     6.799735133    -3.137015303
    293      0   2 -0.550000    18.058802827    15.360855613     9.261114859
    294      0   2 -0.550000     4.210696549    19.264474495    14.107291723
    295      0   2 -0.550000    15.408110701    10.580037095    10.416949941
    296      0   2 -0.550000    12.545288622     1.187640339    11.685003745
    297      0   2 -0.550000     2.557671477     4.683037225     0.040145599
    298      0   2 -0.550000    15.560021901     7.966800822    10.637101554
    299      0   1  0.725000    18.644571709     9.520700798    -2.844127799
    300      0   1  1.100000    17.005667141    13.162655618    -0.921468750
    301      0   1  1.100000     5.904110833     5.253975477     2.851145935
    302      0   1  1.100000    -0.010624111    13.008915950     4.557131264
    303      0   1  1.100000    19.586617585    12.211796051    -1.527905828
    304      0   1  1.100000     9.690845913     3.065288880     4.972078934
    305      0   1  1.100000    10.326706339    11.004722155     3.458279946
    306      0   1  1.100000     0.186748693     9.345219032     4.007750771
    307      0   2 -0.550000    10.579678221    15.171539596     2.841419067
    308      0   2 -0.550000     0.404253507    12.478452632     3.090705012
    309      0   2 -0.550000     9.843278029     8.852757280     7.014578338
    310      0   2 -0.550000    18.338961549    16.428584283     0.437536177
    311      0   2 -0.550000     7.597725638     3.314904721    -2.808906111
    312      0   2 -0.550000     7.396159926    11.781595660    12.446215502
    313      0   2 -0.550000     5.994261312    12.278817748    14.511225196
    314      0   2 -0.550000     7.057546201    14.217462963    13.297216474
    315      0   2 -0.550000     1.863950164     9.668612144     7.306653123
    316      0   2 -0.550000    12.952885716     5.505293282    -3.273338513
    317      0   2 -0.550000    15.323873751     7.492727245    14.274079285
    318      0   2 -0.550000    13.975072871     1.285355902     1.925573324
    319      0   2 -0.550000    12.576799706    13.532851367     2.752846956
    320      0   2 -0.550000    -0.475690294    14.201478491     1.388898681
    321      0   2 -0.550000    19.465070084     9.486179666     7.894000323
    322      0   2 -0.550000    17.037529319    12.654951574     0.549235960
    323      0   1  1.100000     2.700629197    10.610232888     8.311338574
    324      0   1  1.100000    12.854185031    14.178564792     6.229436074
    325      0   1  1.100000    17.807610451     4.865186025     9.040800050
    326      0   1  1.100000     4.390271225    16.473773054     3.033170548
    327      0   1  1.100000    16.072092066     5.376745656     6.710764714
    328      0   1  1.100000     4.587251804    13.820107729     4.359091022
    329      0   1  1.100000     0.504514711     9.284733021    14.640304156
    330      0   1  1.100000     7.334044326    18.354185375     6.425126840
    331      0   2 -0.550000     6.197172962     8.513115917     4.422750062
    332      0   2 -0.550000    10.635275340    18.501450186     6.642022094
    333      0   2 -0.550000     0.615680923    11.912740555    13.658048969
    334      0   2 -0.550000     4.943472004    10.596530649     4.878532442
    335      0   2 -0.550000    17.540486490    18.885774601    -0.051818479
    336      0   2 -0.550000    13.732573103    17.037613051    13.610210213
    337      0   2 -0.550000     6.549244648    10.722807120     2.966808569
    338      0   2 -0.550000     3.465045253     8.041038326     3.299247545
    339      0   2 -0.550000     4.058785376     9.846451578     8.780423335
    340      0   2 -0.550000    14.511058417    16.349940321    -1.303235333
    341      0   2 -0.550000    18.856389439    12.468049352     5.009166603
    342      0   2 -0.550000     3.657445959     0.997936571     9.536150495
    343      0   2 -0.550000     1.097149576    13.211007333    10.760006867
    344      0   2 -0.550000     4.170746164     4.793126959    13.238375827
    345      0   2 -0.550000    10.356595860     4.234388071    -2.684714583
    346      0   2 -0.550000    13.236416735     0.472253077    -0.528912983
    347      0   1  1.100000     5.233583716     8.446017180    13.757945986
    348      0   1  1.100000     4.195829105     5.622099410     8.876690574
    349      0   1  1.100000     4.229821679    12.458533436    -3.720265391
    350      0   1  1.100000    18.001527439    17.929907102     6.448820710
    351      0   1  1.100000    15.671659844     9.062264814    -3.857905334
    352      0   1  1.100000     3.629747069     0.856991756     0.748449741
    353      0   1  1.100000     3.257311224    17.568197448     8.658213557
    354      0   1  1.100000     0.078471601     3.194787274    -2.265353190
    355      0   2 -0.550000    19.577658325    17.904064083    -1.314280465
    356      0   2 -0.550000    18.720668159    19.354970468     6.334800095
    357      0   3 -0.675000     4.270671416    10.945319513    15.841954743
    358      0   2 -0.550000     4.859840741     0.353696801    15.922082129
    359      0   2 -0.550000     3.008659599    11.973886015     7.527249656
    360      0   2 -0.550000     0.489226377     3.488808939     1.277076142
    361      0   2 -0.550000    17.506664831     4.939331776    10.674710386
    362      0   2 -0.550000     8.408316601    14.838590638     5.730201315
    363      0   2 -0.550000     1.656682100     6.778868362    -1.314727080
    364      0   2 -0.550000    -0.201528514     0.548462553     8.142497818
    365      0   2 -0.550000    14.563161907    16.629223655    11.149414887
    366      0   2 -0.550000    14.380575809     3.049030039    11.276683818
    367      0   2 -0.550000    40.475325021     0.297584348    14.438174867
    368      0   2 -0.550000    11.478671070     0.846470725    -2.331713000
    369      0   2 -0.550000     0.774550239    18.727194923     2.456220616
    370      0   1  1.100000     1.399442445    17.308726080     2.812569024
    371      0   1  1.100000     9.980359718    20.416160522    -1.894674461
    372      0   1  1.100000     4.708255815    15.204776031     9.733186536
    373      0   1  1.100000    18.263372554     6.195726910     4.991101669
    374      0   1  1.100000     2.100204680    18.991985607    -3.656633146
    375      0   1  1.100000    11.301295622     5.333272772    -3.543464343