LAMMPS 2005 data file for silica_Q2_Q3_18pct_i2

   2256 atoms
   2818 bonds
   5426 angles
   7974 dihedrals
   2688 impropers

   5 atom types
   3 bond types
   5 angle types
   4 dihedral types
   3 improper types

     0.000000000    33.407100000 xlo xhi
     0.000000000    34.870300000 ylo yhi
     0.000000000    66.249200000 zlo zhi

Masses

   1  15.999400
   2  15.999400
   3  28.086000
   4   1.008000
   5  22.989771

Pair Coeffs

   1   0.0400000000   3.6000000000 
   2   0.1200000000   3.6000000000 
   3   0.0800000000   4.2000000000 
   4   0.0130000000   1.0980000000 
   5   0.0800000000   3.3000000000 

Bond Coeffs

  1     1.6800   285.0000     0.0000     0.0000 
  2     1.6800   285.0000     0.0000     0.0000 
  3     0.9450   495.0000     0.0000     0.0000 

Angle Coeffs

  1   149.0000   100.0000     0.0000     0.0000 
  2   115.0000    50.0000     0.0000     0.0000 
  3   109.5000   100.0000     0.0000     0.0000 
  4   109.5000   100.0000     0.0000     0.0000 
  5   109.5000   100.0000     0.0000     0.0000 

Atoms

      1      0   1 -0.550000     3.453793081     0.817739914    11.134171573
      2      0   1 -0.550000     9.242074600     0.615516614     3.361517470
      3      0   1 -0.550000     6.463371737     0.853004277     7.343458686
      4      0   1 -0.550000     2.081522942     4.850040455     7.470657131
      5      0   1 -0.550000     7.719545758     4.736014566    11.066266721
      6      0   1 -0.550000     4.952034536     4.811857064     2.937973222
      7      0   1 -0.550000     5.245549576     3.999832708    11.731871686
      8      0   1 -0.550000     2.625694412     3.823633128     3.810567746
      9      0   1 -0.550000     8.290573411     3.913423982     7.748904039
     10      0   1 -0.550000     3.196985902     1.745129448     8.699447086
     11      0   2 -0.675000     9.140149112     1.005174781     0.815282529
     12      0   1 -0.550000     6.219633670     1.538889124     4.816098263
     13      0   1 -0.550000     2.927133505     3.322243402    10.660688591
     14      0   1 -0.550000     5.981240532     3.315157768     6.667452193
     15      0   1 -0.550000     1.580974337     2.405855527     6.613167602
     16      0   1 -0.550000     6.951616479     2.120487354    10.859767302
     17      0   1 -0.550000     4.538053774     2.152146158     2.988190097
     18      0   1 -0.550000     7.090723987     1.540590840     2.324777187
     19      0   1 -0.550000     1.034587823     1.303490220    10.229803845
     20      0   1 -0.550000     4.072793167     1.442385585     6.253606347
     21      0   1 -0.550000     0.687645035     4.444324323     5.447479819
     22      0   1 -0.550000     6.056707208     4.024346512     9.260644862
     23      0   2 -0.675000     3.322810490     3.590071688     1.227147147
     24      0   3  1.100000     8.645089425     1.523110319     2.221309061
     25      0   3  1.100000     2.638369263     1.845733733    10.186013083
     26      0   3  1.100000     5.701322526     1.816428753     6.269605735
     27      0   3  1.100000     1.021067948     3.912691855     6.834731046
     28      0   3  1.100000     6.510375441     3.743884738    10.733297403
     29      0   3  1.100000     3.867205848     3.616712768     2.795298845
     30      0   3  1.100000     3.643144503     4.344490747    11.749097165
     31      0   3  1.100000     1.113485307     4.407710668     3.882176535
     32      0   3  1.100000     6.679782820     4.239600865     7.806938472
     33      0   3  1.100000     2.734852254     1.430058925     7.181479562
     34      0   3  1.100000     8.190218497     1.139414913    11.211153637
     35      0   3  1.100000     5.789851097     1.211979984     3.308133936
     36      0   4  0.400000     9.899708224     0.460534930     0.961228603
     37      0   4  0.400000     3.620645518     4.428561975     0.868092599
     38      0   5  1.000000    14.327773218     2.868038139     0.683301742
     39      0   2 -0.675000     3.449049252     3.879808984    25.287120831
     40      0   5  1.000000     9.989003088     1.272399887    26.025245695
     41      0   5  1.000000     4.267277877    15.858581977    25.236595872
     42      0   5  1.000000     8.548747560    23.546555213    24.541292067
     43      0   5  1.000000    31.181412386    27.175974660    25.416369527
     44      0   5  1.000000     1.415156303    33.235652068    26.622240947
     45      0   5  1.000000    17.544434866    13.104581354    25.585103690
     46      0   5  1.000000    10.856115489    12.095005456    25.503561585
     47      0   5  1.000000    18.650572860    26.550806707    25.482212113
     48      0   5  1.000000    13.434117543    27.670242006    25.452069413
     49      0   5  1.000000    25.492095650    13.544366830    25.100701227
     50      0   5  1.000000    19.308399893    19.328447892    26.706383540
     51      0   5  1.000000    25.561992347    33.489005196    25.011796452
     52      0   5  1.000000    27.191084103     5.728172542    25.490767965
     53      0   5  1.000000    26.752229109    20.505385337    26.110674396
     54      0   5  1.000000    34.916400452    25.952068483    25.371256668
     55      0   2 -0.675000     8.100620641     6.458293604     0.596529676
     56      0   5  1.000000    10.826155877    10.686868929    -0.514641033
     57      0   2 -0.900000     8.750956530    16.282511973     0.694795125
     58      0   2 -0.675000     3.528825423    18.686469892    25.238626109
     59      0   5  1.000000    10.063972197    24.468836714     0.261582191
     60      0   2 -0.675000     8.461918246    26.168625004     0.716465242
     61      0   5  1.000000     3.069691218    30.723115009     0.966031919
     62      0   2 -0.675000     3.209055921    33.647327840    25.402527292
     63      0   2 -0.675000    16.934425792     0.914874647     0.879584014
     64      0   2 -0.675000    11.433212245     3.714419329    25.289705294
     65      0   5  1.000000    17.970227303    11.190913972    -0.617980536
     66      0   2 -0.675000    16.321907122    11.904511449     0.987649669
     67      0   5  1.000000     9.840566616    16.742774580    -0.981801278
     68      0   2 -0.675000    11.915310097    18.120036940    24.742553258
     69      0   5  1.000000    18.372703100    24.461653236     0.445387891
     70      0   2 -0.675000    16.777880189    26.254058945     0.802940310
     71      0   2 -0.675000    11.605760273    33.877751108    25.388548681
     72      0   5  1.000000    26.413698382     4.246481848     0.250026313
     73      0   2 -0.675000    24.839449056     6.037966617     0.613872384
     74      0   5  1.000000    24.031694866     9.581498774     0.546914338
     75      0   2 -0.675000    20.006676551     9.043751623    25.235512512
     76      0   5  1.000000    21.953073237    33.434795768     0.038169978
     77      0   2 -0.675000    25.227539500    16.214723919     0.440308739
     78      0   5  1.000000    20.602859838    16.567294191     0.857590052
     79      0   2 -0.675000    20.680966796    19.172912316    24.926062009
     80      0   5  1.000000    26.716070308    24.300730645     0.355972353
     81      0   2 -0.675000    25.362169753    25.952534602     0.701890430
     82      0   2 -0.675000    19.952356115    28.765800182    25.164030083
     83      0   2 -0.675000     0.068560719     6.704442807     0.758937611
     84      0   2 -0.675000    28.124469458     8.663491086    25.267842985
     85      0   2 -0.675000    -0.177491228    16.299773350     0.863134344
     86      0   5  1.000000    31.449407348    19.299482005     0.808402594
     87      0   2 -0.675000    28.291269835    19.249172059    25.186091806
     88      0   2 -0.675000     0.376878858    26.480784682     0.443166068
     89      0   2 -0.675000    28.672412918    29.259739510    25.105398894
     90      0   5  1.000000     1.477021989     6.736855099    -0.835063688
     91      0   5  1.000000    36.165374540    21.095194605     0.686480608
     92      0   4  0.400000     4.285476531     3.919698763    24.856834798
     93      0   4  0.400000     4.277943367    19.252268837    25.075175900
     94      0   4  0.400000     4.079924480    33.677132982    25.043888928
     95      0   4  0.400000    12.364022739     3.903289678    25.176530814
     96      0   4  0.400000    11.696753003    17.191800868    24.761922229
     97      0   4  0.400000    12.505813382    33.835624313    25.080234108
     98      0   4  0.400000    19.629612559     8.411372346    25.813088177
     99      0   4  0.400000    21.312460067    18.706512138    24.389656367
    100      0   4  0.400000    20.801730305    29.012992180    24.814963800
    101      0   4  0.400000    29.026296043     8.778892762    24.987544756
    102      0   4  0.400000    29.175036921    19.231257448    24.822871145
    103      0   4  0.400000    29.418975891    28.993036477    24.575209853
    104      0   4  0.400000     7.312807454     6.045374743     0.934126005
    105      0   4  0.400000     7.672268602    26.593142001     1.033553626
    106      0   4  0.400000    16.150638590     0.836435798     1.429458975
    107      0   4  0.400000    15.498352176    12.026999250     1.438906566
    108      0   4  0.400000    15.956201089    26.685951673     1.060736205
    109      0   4  0.400000    24.009208275     6.206256919     1.052716749
    110      0   4  0.400000    24.656463595    15.468312977     0.613456768
    111      0   4  0.400000    24.476621772    26.269963167     0.913277486
    112      0   4  0.400000    -0.770152884     6.559313214     1.208213801
    113      0   4  0.400000    -0.672057100    15.634451043     1.333270081
    114      0   4  0.400000    -0.516188149    26.441160010     0.751776323
    115      0   1 -0.550000     2.604925258     0.504248934    23.420482732
    116      0   1 -0.550000     8.711736498     0.742608370    15.266399881
    117      0   1 -0.550000     5.911018724     0.830289745    19.102162197
    118      0   1 -0.550000     1.769493927     4.635483416    19.047904260
    119      0   1 -0.550000     7.364729070     4.755123149    22.644241408
    120      0   1 -0.550000     4.716848753     4.674921660    15.250168503
    121      0   2 -0.675000     5.011231964     4.459039621    23.387557971
    122      0   1 -0.550000     2.212114632     3.927685922    15.670982924
    123      0   1 -0.550000     7.660047656     4.120449044    19.594460033
    124      0   1 -0.550000     2.725364596     1.372083537    20.818877723
    125      0   1 -0.550000     8.721658739     1.338492961    12.700170827
    126      0   1 -0.550000     5.556602769     1.470651479    16.651802595
    127      0   1 -0.550000     2.480069646     3.059875676    22.892543388
    128      0   1 -0.550000     5.404467217     3.300969093    18.446162590
    129      0   1 -0.550000     1.001431300     2.150887278    18.990597880
    130      0   1 -0.550000     6.491801356     2.243537794    22.858226689
    131      0   1 -0.550000     3.976146398     2.203548505    14.800601186
    132      0   1 -0.550000     6.511077345     1.712888423    14.180774196
    133      0   1 -0.550000     0.485244817     1.489073400    22.207194622
    134      0   1 -0.550000     3.411265884     1.533254106    18.283057083
    135      0   1 -0.550000     0.130757396     3.845566300    17.152116414
    136      0   1 -0.550000     5.597560139     3.913982041    20.977742263
    137      0   1 -0.550000     3.080338341     4.124040574    13.273093458
    138      0   3  1.100000     8.122902872     1.766093551    14.130490686
    139      0   3  1.100000     2.065293766     1.616726527    22.293915315
    140      0   3  1.100000     5.051688044     1.817345861    18.151618656
    141      0   3  1.100000     0.505045212     3.688510637    18.691483256
    142      0   3  1.100000     6.082296853     3.796573764    22.462387188
    143      0   3  1.100000     3.478213631     3.772234288    14.711297017
    144      0   3  1.100000     2.304638831     4.045198899    24.068069506
    145      0   3  1.100000     0.649397278     4.299787055    15.690261758
    146      0   3  1.100000     6.101706752     4.257698551    19.573790249
    147      0   3  1.100000     2.208279545     1.174874519    19.280967974
    148      0   3  0.725000     7.764411391     1.257677555    23.000265561
    149      0   3  1.100000     5.204091415     1.262667480    15.102830394
    150      0   4  0.400000     4.549516662     5.097586792    22.871478209
    151      0   2 -0.900000     8.464055819     1.409203031    24.541818042
    152      0   2 -0.675000     0.896312520     3.846856746    24.710289914
    153      0   2 -0.675000     8.206053162     6.485038865    24.456819008
    154      0   2 -0.675000     2.650866647     9.375647051    25.229020750
    155      0   2 -0.675000     8.239694298    11.715304524    24.774948885
    156      0   2 -0.900000     2.525085617    14.464932678    25.110036713
    157      0   2 -0.675000     8.044429455    16.557220389    24.926393704
    158      0   2 -0.675000     1.039966353    18.771868500    24.645032706
    159      0   2 -0.900000     8.257299655    21.295781034    24.559107688
    160      0   2 -0.675000     3.237779494    23.914470060    25.282350729
    161      0   2 -0.675000     8.015599601    26.082322278    24.825232396
    162      0   2 -0.675000     2.587199432    29.954424177    25.079959008
    163      0   2 -0.675000     7.565104375    31.637544521    24.794822995
    164      0   2 -0.900000     0.779317491    33.720208052    24.671335396
    165      0   2 -0.675000    16.796723088     1.262803488    24.743878067
    166      0   2 -0.675000     9.092577911     4.004609983    24.278344926
    167      0   2 -0.675000    16.892934775     6.488002709    24.815095929
    168      0   2 -0.675000    11.060088794     8.954274093    24.979857941
    169      0   2 -0.900000    16.322708587    11.501619907    24.764480722
    170      0   2 -0.900000    10.996013379    14.189840792    25.478580410
    171      0   2 -0.675000    16.822845881    16.421435397    24.895390015
    172      0   2 -0.675000     9.440211776    18.956890503    24.943021933
    173      0   2 -0.675000    16.864639563    21.634858483    24.562420697
    174      0   2 -0.675000    10.828510102    23.491773141    25.080158420
    175      0   2 -0.900000    16.595311354    26.768396003    24.925996854
    176      0   2 -0.900000    11.336666033    28.097197755    25.127592900
    177      0   2 -0.675000    16.249413831    31.361719987    24.932753183
    178      0   2 -0.675000     9.177431689    33.843265767    24.633970255
    179      0   2 -0.675000    25.232917780     1.642746805    24.639269491
    180      0   2 -0.675000    19.335193923     4.529233460    25.210736017
    181      0   2 -0.675000    25.029401329     6.611513522    24.885782682
    182      0   2 -0.675000    17.522024364     9.233097803    24.663980831
    183      0   2 -0.900000    24.692724142    11.557865390    24.612372512
    184      0   2 -0.675000    19.702605564    13.616224780    25.125604699
    185      0   2 -0.675000    24.981695720    16.720622544    24.554669281
    186      0   2 -0.900000    18.150677876    19.470250698    24.946402072
    187      0   2 -0.675000    24.764883903    21.370263717    24.632645446
    188      0   2 -0.675000    19.380227317    24.004017218    24.950111932
    189      0   2 -0.675000    25.028365895    26.160710335    24.792173377
    190      0   2 -0.675000    17.462526761    29.183791532    24.853851034
    191      0   2 -0.900000    24.937697760    31.456637813    24.728375235
    192      0   2 -0.675000    19.233235580    34.364122865    25.291162387
    193      0   2 -0.900000    27.281807765     3.677282429    24.854976431
    194      0   2 -0.675000    25.683311454     9.129916133    24.472256685
    195      0   2 -0.675000    28.004470677    14.212960229    25.147599293
    196      0   2 -0.900000    25.861939668    19.055364525    24.360824651
    197      0   2 -0.675000    27.408387523    23.691824284    25.140511268
    198      0   2 -0.675000    26.118004371    29.101809866    24.586867471
    199      0   2 -0.675000    27.936687614    34.075012996    25.079893853
    200      0   2 -0.675000    33.024756213     1.145716069    24.639998037
    201      0   2 -0.675000    32.972908870     6.203600488    24.837554501
    202      0   2 -0.675000    33.683696747    10.915555127    24.663052872
    203      0   2 -0.675000    33.811486263    16.111962092    24.629000740
    204      0   2 -0.675000    32.892563210    21.209999995    24.540890083
    205      0   2 -0.900000    32.954533907    26.399118938    24.842257474
    206      0   2 -0.675000    33.012060205    31.493808488    24.647220319
    207      0   4  0.400000    28.623186271    34.485883515    25.585648937
    208      0   4  0.400000     8.631701378    34.592678715    24.379730096
    209      0   4  0.400000    33.229772485    32.425383138    24.551363743
    210      0   4  0.400000    16.647224687    30.526727065    25.131642069
    211      0   4  0.400000    25.601029792    29.921684488    24.612241815
    212      0   4  0.400000     8.671175420    26.712967810    25.100372478
    213      0   4  0.400000    25.268994560    27.047984281    25.016307265
    214      0   4  0.400000    25.266023459    17.643830676    24.547948605
    215      0   4  0.400000    25.291973720    10.016505911    24.461019871
    216      0   4  0.400000    25.871335220     2.373748998    24.609359253
    217      0   4  0.400000    17.263685044    20.791639592    24.791880566
    218      0   4  0.400000    34.411853524    15.386370473    24.825791949
    219      0   4  0.400000    33.556810805     5.481583107    25.038153786
    220      0   4  0.400000     3.080474016    22.992222202    25.472910050
    221      0   4  0.400000    16.995247994    10.035898108    24.548862001
    222      0   4  0.400000     9.036722403    19.839706172    24.821691190
    223      0   4  0.400000    10.507984051     8.189622711    24.930302172
    224      0   4  0.400000    16.953527751     7.429535011    24.955727929
    225      0   4  0.400000    18.919042971    23.185369201    24.824226398
    226      0   4  0.400000     7.894735618    12.588285875    24.888522147
    227      0   4  0.400000     0.727129505     2.918463861    24.775206234
    228      0   4  0.400000    11.123307045    22.596605245    25.287755627
    229      0   4  0.400000    16.981843857    28.378986904    24.586871182
    230      0   4  0.400000    25.063468125    20.430007323    24.618640134
    231      0   4  0.400000     8.584757062    17.341355935    24.902797117
    232      0   4  0.400000     1.737970580     9.611157516    25.274364382
    233      0   4  0.400000    25.053215135     7.559255945    24.996275474
    234      0   4  0.400000    28.380425420    14.956589636    25.595021746
    235      0   4  0.400000     0.922934612    17.808412867    24.803027725
    236      0   4  0.400000    17.098158717    17.331546538    24.939443022
    237      0   4  0.400000    33.214039104    20.375232647    24.851895104
    238      0   4  0.400000    17.378576311     0.548162954    24.938613732
    239      0   4  0.400000    33.482691969     0.302112932    24.738035851
    240      0   4  0.400000     8.397704373     5.593098343    24.734649046
    241      0   4  0.400000     8.169346083    32.367286299    24.802229821
    242      0   4  0.400000    19.821047152    33.950117840    25.886630892
    243      0   4  0.400000    34.106315109    11.755191578    24.763441912
    244      0   4  0.400000    26.759965688    24.376740797    25.353288445
    245      0   4  0.400000     8.794494530     3.089594510    24.251318104
    246      0   4  0.400000    18.445762684     4.839784684    25.174337668
    247      0   4  0.400000     2.585257100    30.877121139    24.824213711
    248      0   4  0.400000    20.474601442    13.094886700    25.302983964
    249      0   1 -0.550000     3.443837736     5.864766215    11.275614183
    250      0   1 -0.550000     8.780755112     5.480216314     2.922636485
    251      0   1 -0.550000     6.311570212     5.793246855     7.425938905
    252      0   1 -0.550000     2.338677464     9.578348196     6.770933398
    253      0   1 -0.550000     7.572453962     9.680378415    11.171735140
    254      0   1 -0.550000     5.341494440     9.708380088     3.252762942
    255      0   1 -0.550000     5.071632087     8.919229654    11.741544174
    256      0   1 -0.550000     2.792790236     9.484930998     3.695181522
    257      0   1 -0.550000     8.088092891     8.906536670     7.795013216
    258      0   1 -0.550000     3.033157667     6.847027389     8.855332286
    259      0   2 -0.675000    10.564761287     6.547875056     1.337955647
    260      0   1 -0.550000     5.906141235     6.357622680     4.952743624
    261      0   1 -0.550000     2.645768879     8.342475209    10.935225145
    262      0   1 -0.550000     5.776321267     8.308197711     6.701636609
    263      0   1 -0.550000     1.449884843     7.146005653     6.741386308
    264      0   1 -0.550000     6.945336177     7.148062781    10.973981237
    265      0   1 -0.550000     4.107503089     7.314812770     3.303966760
    266      0   2 -0.675000     6.263931309     6.748588700     2.425701323
    267      0   1 -0.550000     1.011196172     6.311803130    10.392578644
    268      0   1 -0.550000     3.908229924     6.490722857     6.409755620
    269      0   1 -0.550000     0.594192057     8.842585401     4.946231625
    270      0   1 -0.550000     5.949403440     8.914731927     9.225797055
    271      0   2 -0.675000     3.714401745     8.922890811     1.340373646
    272      0   3  1.100000     9.021586995     6.658797846     1.885902742
    273      0   3  1.100000     2.535989777     6.840751044    10.401787152
    274      0   3  1.100000     5.493831105     6.726968852     6.380659181
    275      0   3  1.100000     1.004488007     8.671371980     6.488738224
    276      0   3  1.100000     6.416835969     8.648880749    10.811869830
    277      0   3  1.100000     3.999364502     8.875432938     2.926194071
    278      0   3  1.100000     3.482757094     9.263364967    11.849066935
    279      0   3  1.100000     1.240068176     9.424500592     3.647276893
    280      0   3  1.100000     6.520431093     9.246522395     7.739099268
    281      0   3  1.100000     2.641001654     6.340431970     7.331931268
    282      0   3  1.100000     8.175519323     6.208656793    11.341333396
    283      0   3  1.100000     5.221262686     6.257824177     3.503078789
    284      0   4  0.400000    10.686298741     7.377714759     0.913845378
    285      0   4  0.400000     3.295003058     8.098515386     1.153541042
    286      0   4  0.400000     6.626553980     7.601396187     2.644234312
    287      0   1 -0.550000     2.505041515     5.567357167    23.459107528
    288      0   1 -0.550000     8.870653641     5.764722976    15.244669855
    289      0   1 -0.550000     5.771544334     5.809705957    19.285009530
    290      0   1 -0.550000     1.761997364     9.661339979    19.263942895
    291      0   1 -0.550000     6.982484844     9.711797030    23.492032290
    292      0   1 -0.550000     4.666838309     9.702695577    15.174512235
    293      0   1 -0.550000     4.563042569     8.631968549    23.550199499
    294      0   1 -0.550000     2.297830607     8.911698456    15.861449390
    295      0   1 -0.550000     7.742830567     8.929342264    19.736631189
    296      0   1 -0.550000     2.654037165     6.452679240    20.888174513
    297      0   1 -0.550000     8.620802535     6.349009658    12.846316410
    298      0   1 -0.550000     5.616167576     6.636829341    16.880826728
    299      0   1 -0.550000     2.094732062     8.130394102    22.876047443
    300      0   1 -0.550000     5.368220075     8.364548155    18.759919216
    301      0   1 -0.550000     1.035750383     7.105381663    18.872806368
    302      0   1 -0.550000     6.583837956     7.297028667    22.485110328
    303      0   1 -0.550000     4.004041376     7.188024270    14.871620623
    304      0   1 -0.550000     6.544785187     6.539680839    14.393698247
    305      0   1 -0.550000     0.313549341     6.288614585    22.363543801
    306      0   1 -0.550000     3.457701594     6.617057739    18.308098144
    307      0   1 -0.550000     0.136334379     8.943395581    17.245395998
    308      0   1 -0.550000     5.614296827     9.357584440    21.252676654
    309      0   1 -0.550000     2.968544873     9.070218374    13.394263134
    310      0   3  1.100000     8.124172274     6.702106650    14.268421861
    311      0   3  1.100000     1.922992842     6.567472070    22.387194899
    312      0   3  1.100000     5.050284733     6.877120484    18.277027326
    313      0   3  1.100000     0.577528608     8.656447280    18.778865367
    314      0   3  1.100000     5.933902801     8.750702086    22.701216092
    315      0   3  1.100000     3.515495959     8.711542352    14.863869207
    316      0   3  1.100000     3.038606139     9.137867174    23.652687591
    317      0   3  1.100000     0.721920747     9.261412280    15.812557817
    318      0   3  1.100000     6.209611371     9.358176793    19.762799622
    319      0   3  1.100000     2.267947896     6.152968849    19.313495885
    320      0   3  1.100000     7.762807963     6.293984734    22.903740097
    321      0   3  1.100000     5.230249054     6.237877986    15.359810761
    322      0   1 -0.550000     3.307914186    10.775236036    11.323379371
    323      0   1 -0.550000     9.208466818    10.409132737     3.448847259
    324      0   1 -0.550000     6.241448463    10.827716440     7.321265174
    325      0   1 -0.550000     2.390050897    14.676455726     6.786899222
    326      0   1 -0.550000     7.743665385    14.607936064    11.020951738
    327      0   1 -0.550000     5.076342314    14.623452597     3.305364621
    328      0   1 -0.550000     5.256707368    14.030693187    11.587184183
    329      0   1 -0.550000     2.739619480    13.600742541     3.462759481
    330      0   1 -0.550000     8.318902474    14.141022585     7.616339229
    331      0   1 -0.550000     3.156680407    11.403250845     8.625645748
    332      0   2 -0.900000     9.399655637    10.933826621     0.941248777
    333      0   1 -0.550000     6.169890547    11.529864757     4.749875583
    334      0   1 -0.550000     2.924922008    13.183379916    10.519246968
    335      0   1 -0.550000     5.850719157    13.385731884     6.727606123
    336      0   1 -0.550000     1.516475166    12.134376659     6.684742826
    337      0   1 -0.550000     6.874813695    12.159064272    10.758472723
    338      0   1 -0.550000     4.699510219    12.147975838     2.610324364
    339      0   1 -0.550000     7.173673663    11.417303123     2.321882005
    340      0   1 -0.550000     1.003181830    11.431529989    10.191445590
    341      0   1 -0.550000     4.078405664    11.498062671     6.186568741
    342      0   1 -0.550000     0.658854818    13.952200170     5.028930506
    343      0   1 -0.550000     6.098499397    14.055311173     9.171340692
    344      0   2 -0.675000     3.704446400    14.137534976     1.114285045
    345      0   3  0.725000     8.748149907    11.453429386     2.375192734
    346      0   3  1.100000     2.592678270    11.649260274    10.163157660
    347      0   3  1.100000     5.619374931    11.862387871     6.230412811
    348      0   3  1.100000     1.144296797    13.677352499     6.545983892
    349      0   3  1.100000     6.507402552    13.683628324    10.647836364
    350      0   3  1.100000     4.058561680    13.619641721     2.592357753
    351      0   3  1.100000     3.628712651    14.132548818    11.615604396
    352      0   3  1.100000     1.205304740    14.094365947     3.496387615
    353      0   3  1.100000     6.656832536    14.350697907     7.744862483
    354      0   3  1.100000     2.760959864    11.152637690     7.095819111
    355      0   3  1.100000     8.017503703    11.230852198    11.236327969
    356      0   3  1.100000     5.850117809    11.197760446     3.243872309
    357      0   4  0.400000     3.938155966    13.436250548     0.529608692
    358      0   1 -0.550000     3.113281057    10.579055972    22.953624782
    359      0   1 -0.550000     8.603998643    10.827716440    15.449181073
    360      0   1 -0.550000     5.924815876    10.784476744    19.119254405
    361      0   1 -0.550000     1.896621270    14.649257367    19.085401685
    362      0   1 -0.550000     6.945202267    14.705328262    23.382853023
    363      0   1 -0.550000     4.875833100    14.580108979    14.794506275
    364      0   1 -0.550000     4.591772364    13.578425379    23.669977237
    365      0   1 -0.550000     2.368970864    14.166303591    15.539412214
    366      0   1 -0.550000     7.555750627    13.852889578    19.496874327
    367      0   1 -0.550000     2.756767354    11.717884897    20.557854813
    368      0   1 -0.550000     8.408667094    11.632383407    12.790004130
    369      0   1 -0.550000     5.638517011    11.600302812    16.700230188
    370      0   1 -0.550000     2.182228685    13.110395782    22.721686464
    371      0   1 -0.550000     5.141519868    13.249354539    18.598734780
    372      0   1 -0.550000     1.213609738    12.171721922    18.493729353
    373      0   1 -0.550000     6.667856916    12.224864307    22.619000934
    374      0   1 -0.550000     3.926837610    12.184101062    14.903950108
    375      0   1 -0.550000     6.265468031    11.471387037    14.223040736