LAMMPS 2005 data file for silica_Q2_Q3_9pct_ioB

   2256 atoms
   2834 bonds
   5442 angles
   8022 dihedrals
   2688 impropers

   5 atom types
   3 bond types
   5 angle types
   4 dihedral types
   3 improper types

     0.000000000    33.407100000 xlo xhi
     0.000000000    34.870300000 ylo yhi
     0.000000000    66.249200000 zlo zhi

Masses

   1  15.999400
   2  15.999400
   3  28.086000
   4   1.008000
   5  22.989771

Pair Coeffs

   1   0.0400000000   3.6000000000 
   2   0.1200000000   3.6000000000 
   3   0.0800000000   4.2000000000 
   4   0.0130000000   1.0980000000 
   5   0.0800000000   3.3000000000 

Bond Coeffs

  1     1.6800   285.0000     0.0000     0.0000 
  2     1.6800   285.0000     0.0000     0.0000 
  3     0.9450   495.0000     0.0000     0.0000 

Angle Coeffs

  1   149.0000   100.0000     0.0000     0.0000 
  2   115.0000    50.0000     0.0000     0.0000 
  3   109.5000   100.0000     0.0000     0.0000 
  4   109.5000   100.0000     0.0000     0.0000 
  5   109.5000   100.0000     0.0000     0.0000 

Atoms

      1      0   1 -0.550000     3.453793081     0.817739914    11.134171573
      2      0   1 -0.550000     9.242074600     0.615516614     3.361517470
      3      0   1 -0.550000     6.463371737     0.853004277     7.343458686
      4      0   1 -0.550000     2.081522942     4.850040455     7.470657131
      5      0   1 -0.550000     7.719545758     4.736014566    11.066266721
      6      0   1 -0.550000     4.952034536     4.811857064     2.937973222
      7      0   1 -0.550000     5.245549576     3.999832708    11.731871686
      8      0   1 -0.550000     2.625694412     3.823633128     3.810567746
      9      0   1 -0.550000     8.290573411     3.913423982     7.748904039
     10      0   1 -0.550000     3.196985902     1.745129448     8.699447086
     11      0   2 -0.675000     9.140149112     1.005174781     0.815282529
     12      0   1 -0.550000     6.219633670     1.538889124     4.816098263
     13      0   1 -0.550000     2.927133505     3.322243402    10.660688591
     14      0   1 -0.550000     5.981240532     3.315157768     6.667452193
     15      0   1 -0.550000     1.580974337     2.405855527     6.613167602
     16      0   1 -0.550000     6.951616479     2.120487354    10.859767302
     17      0   1 -0.550000     4.538053774     2.152146158     2.988190097
     18      0   1 -0.550000     7.090723987     1.540590840     2.324777187
     19      0   1 -0.550000     1.034587823     1.303490220    10.229803845
     20      0   1 -0.550000     4.072793167     1.442385585     6.253606347
     21      0   1 -0.550000     0.687645035     4.444324323     5.447479819
     22      0   1 -0.550000     6.056707208     4.024346512     9.260644862
     23      0   2 -0.675000     3.322810490     3.590071688     1.227147147
     24      0   3  1.100000     8.645089425     1.523110319     2.221309061
     25      0   3  1.100000     2.638369263     1.845733733    10.186013083
     26      0   3  1.100000     5.701322526     1.816428753     6.269605735
     27      0   3  1.100000     1.021067948     3.912691855     6.834731046
     28      0   3  1.100000     6.510375441     3.743884738    10.733297403
     29      0   3  1.100000     3.867205848     3.616712768     2.795298845
     30      0   3  1.100000     3.643144503     4.344490747    11.749097165
     31      0   3  1.100000     1.113485307     4.407710668     3.882176535
     32      0   3  1.100000     6.679782820     4.239600865     7.806938472
     33      0   3  1.100000     2.734852254     1.430058925     7.181479562
     34      0   3  1.100000     8.190218497     1.139414913    11.211153637
     35      0   3  1.100000     5.789851097     1.211979984     3.308133936
     36      0   4  0.400000    10.082609265     1.045249811     0.797142895
     37      0   4  0.400000     3.566036397     4.439562091     0.864081556
     38      0   2 -0.675000     3.449049252     3.879808984    25.287120831
     39      0   5  1.000000     9.895765299     1.112012970    26.084155709
     40      0   5  1.000000    31.321206155    27.913202707    25.486416518
     41      0   5  1.000000    10.337582660    12.263514121    25.680693374
     42      0   5  1.000000    18.355321660    26.133960164    25.897273914
     43      0   5  1.000000    27.185397566     5.420097374    25.983476228
     44      0   5  1.000000    26.362344908    20.042777457    26.172957613
     45      0   5  1.000000    34.956640687    26.154061411    25.382175662
     46      0   2 -0.675000     8.100620641     6.458293604     0.596529676
     47      0   5  1.000000    10.501943803    11.023696653    -0.777967732
     48      0   2 -0.675000     8.750956530    16.282511973     0.694795125
     49      0   2 -0.675000     3.528825423    18.686469892    25.238626109
     50      0   2 -0.675000     8.461918246    26.168625004     0.716465242
     51      0   5  1.000000     2.648469590    30.085705018     0.234733637
     52      0   2 -0.675000     3.209055921    33.647327840    25.402527292
     53      0   2 -0.675000    16.934425792     0.914874647     0.879584014
     54      0   2 -0.675000    11.433212245     3.714419329    25.289705294
     55      0   2 -0.675000    16.321907122    11.904511449     0.987649669
     56      0   2 -0.675000    11.915310097    18.120036940    24.742553258
     57      0   5  1.000000    18.301156368    24.820255721    -0.072017558
     58      0   2 -0.675000    16.777880189    26.254058945     0.802940310
     59      0   2 -0.675000    11.605760273    33.877751108    25.388548681
     60      0   2 -0.675000    24.839449056     6.037966617     0.613872384
     61      0   5  1.000000    23.535718120    10.445498516    -0.218806502
     62      0   2 -0.675000    20.006676551     9.043751623    25.235512512
     63      0   5  1.000000    21.459706538    34.189166087    -0.585106598
     64      0   2 -0.675000    25.227539500    16.214723919     0.440308739
     65      0   2 -0.675000    20.680966796    19.172912316    24.926062009
     66      0   2 -0.675000    25.362169753    25.952534602     0.701890430
     67      0   2 -0.675000    19.952356115    28.765800182    25.164030083
     68      0   2 -0.675000     0.068660719     6.704442807     0.758937611
     69      0   2 -0.675000    28.124469458     8.663491086    25.267842985
     70      0   2 -0.675000    -0.177391228    16.299773350     0.863134344
     71      0   5  1.000000    31.393461580    19.157201699     0.527375928
     72      0   2 -0.675000    28.291269835    19.249172059    25.186091806
     73      0   2 -0.675000     0.376978858    26.480784682     0.443166068
     74      0   2 -0.675000    28.672412918    29.259739510    25.105398894
     75      0   5  1.000000     1.658891897     6.660693565    -0.883681354
     76      0   4  0.400000     4.288396602     3.946167838    24.866875565
     77      0   4  0.400000     4.408102291    18.712997794    24.883153578
     78      0   4  0.400000     4.064241324    33.379837679    25.098397324
     79      0   4  0.400000    12.353624287     3.877301003    25.135300231
     80      0   4  0.400000    11.728414887    17.192558376    24.625108496
     81      0   4  0.400000    12.494157178    33.980604388    25.067997795
     82      0   4  0.400000    19.494794740     8.831539048    25.996016780
     83      0   4  0.400000    21.290123143    18.648937493    24.427680132
     84      0   4  0.400000    20.817170713    28.866062092    24.780709763
     85      0   4  0.400000    29.032635812     8.707976153    25.000856690
     86      0   4  0.400000    29.192913001    19.310893905    24.868635382
     87      0   4  0.400000    29.344733857    28.922230567    24.524925746
     88      0   4  0.400000     7.298509107     6.074821019     0.943368397
     89      0   4  0.400000     7.667169893    26.082934819     1.216813731
     90      0   4  0.400000    16.098426909     1.053734886     1.295337943
     91      0   4  0.400000    15.686464288    11.278514948     1.307598915
     92      0   4  0.400000    15.915829797    26.484041991     1.164427538
     93      0   4  0.400000    24.025917674     6.138360897     1.077680343
     94      0   4  0.400000    24.367090832    16.027848767     0.780373857
     95      0   4  0.400000    24.533782379    25.814666745     1.125430154
     96      0   4  0.400000    -0.805965409     6.668237319     1.150957003
     97      0   4  0.400000    -0.670051787    15.671469767     1.381462134
     98      0   4  0.400000    -0.522946444    26.484896271     0.729355748
     99      0   4  0.400000     7.888340941    16.153798334     1.076649115
    100      0   1 -0.550000     2.604925258     0.504248934    23.420482732
    101      0   1 -0.550000     8.711736498     0.742608370    15.266399881
    102      0   1 -0.550000     5.911018724     0.830289745    19.102162197
    103      0   1 -0.550000     1.769493927     4.635483416    19.047904260
    104      0   1 -0.550000     7.364729070     4.755123149    22.644241408
    105      0   1 -0.550000     4.716848753     4.674921660    15.250168503
    106      0   2 -0.675000     5.011231964     4.459039621    23.387557971
    107      0   1 -0.550000     2.212114632     3.927685922    15.670982924
    108      0   1 -0.550000     7.660047656     4.120449044    19.594460033
    109      0   1 -0.550000     2.725364596     1.372083537    20.818877723
    110      0   1 -0.550000     8.721658739     1.338492961    12.700170827
    111      0   1 -0.550000     5.556602769     1.470651479    16.651802595
    112      0   1 -0.550000     2.480069646     3.059875676    22.892543388
    113      0   1 -0.550000     5.404467217     3.300969093    18.446162590
    114      0   1 -0.550000     1.001431300     2.150887278    18.990597880
    115      0   1 -0.550000     6.491801356     2.243537794    22.858226689
    116      0   1 -0.550000     3.976146398     2.203548505    14.800601186
    117      0   1 -0.550000     6.511077345     1.712888423    14.180774196
    118      0   1 -0.550000     0.485244817     1.489073400    22.207194622
    119      0   1 -0.550000     3.411265884     1.533254106    18.283057083
    120      0   1 -0.550000     0.130757396     3.845566300    17.152116414
    121      0   1 -0.550000     5.597560139     3.913982041    20.977742263
    122      0   1 -0.550000     3.080338341     4.124040574    13.273093458
    123      0   3  1.100000     8.122902872     1.766093551    14.130490686
    124      0   3  1.100000     2.065293766     1.616726527    22.293915315
    125      0   3  1.100000     5.051688044     1.817345861    18.151618656
    126      0   3  1.100000     0.505045212     3.688510637    18.691483256
    127      0   3  1.100000     6.082296853     3.796573764    22.462387188
    128      0   3  1.100000     3.478213631     3.772234288    14.711297017
    129      0   3  1.100000     2.304638831     4.045198899    24.068069506
    130      0   3  1.100000     0.649397278     4.299787055    15.690261758
    131      0   3  1.100000     6.101706752     4.257698551    19.573790249
    132      0   3  1.100000     2.208279545     1.174874519    19.280967974
    133      0   3  0.725000     7.764411391     1.257677555    23.000265561
    134      0   3  1.100000     5.204091415     1.262667480    15.102830394
    135      0   4  0.400000     4.581129930     5.128515059    22.887798180
    136      0   2 -0.900000     8.464055819     1.409203031    24.541818042
    137      0   2 -0.675000     0.896312520     3.846856746    24.710289914
    138      0   2 -0.675000     8.206053162     6.485038865    24.456819008
    139      0   2 -0.675000     2.650866647     9.375647051    25.229020750
    140      0   2 -0.675000     8.239694298    11.715304524    24.774948885
    141      0   2 -0.675000     2.525085617    14.464932678    25.110036713
    142      0   2 -0.675000     8.044429455    16.557220389    24.926393704
    143      0   2 -0.675000     1.039966353    18.771868500    24.645032706
    144      0   2 -0.675000     8.257299655    21.295781034    24.559107688
    145      0   2 -0.675000     3.237779494    23.914470060    25.282350729
    146      0   2 -0.675000     8.015599601    26.082322278    24.825232396
    147      0   2 -0.675000     2.587199432    29.954424177    25.079959008
    148      0   2 -0.675000     7.565104375    31.637544521    24.794822995
    149      0   2 -0.675000     0.779317491    33.720208052    24.671335396
    150      0   2 -0.675000    16.796723088     1.262803488    24.743878067
    151      0   2 -0.675000     9.092577911     4.004609983    24.278344926
    152      0   2 -0.675000    16.892934775     6.488002709    24.815095929
    153      0   2 -0.675000    11.060088794     8.954274093    24.979857941
    154      0   2 -0.675000    16.322708587    11.501619907    24.764480722
    155      0   2 -0.900000    10.996013379    14.189840792    25.478580410
    156      0   2 -0.675000    16.822845881    16.421435397    24.895390015
    157      0   2 -0.675000     9.440211776    18.956890503    24.943021933
    158      0   2 -0.675000    16.864639563    21.634858483    24.562420697
    159      0   2 -0.675000    10.828510102    23.491773141    25.080158420
    160      0   2 -0.900000    16.595311354    26.768396003    24.925996854
    161      0   2 -0.675000    11.336666033    28.097197755    25.127592900
    162      0   2 -0.675000    16.249413831    31.361719987    24.932753183
    163      0   2 -0.675000     9.177431689    33.843265767    24.633970255
    164      0   2 -0.675000    25.232917780     1.642746805    24.639269491
    165      0   2 -0.675000    19.335193923     4.529233460    25.210736017
    166      0   2 -0.675000    25.029401329     6.611513522    24.885782682
    167      0   2 -0.675000    17.522024364     9.233097803    24.663980831
    168      0   2 -0.675000    24.692724142    11.557865390    24.612372512
    169      0   2 -0.675000    19.702605564    13.616224780    25.125604699
    170      0   2 -0.675000    24.981695720    16.720622544    24.554669281
    171      0   2 -0.675000    18.150677876    19.470250698    24.946402072
    172      0   2 -0.675000    24.764883903    21.370263717    24.632645446
    173      0   2 -0.675000    19.380227317    24.004017218    24.950111932
    174      0   2 -0.675000    25.028365895    26.160710335    24.792173377
    175      0   2 -0.675000    17.462526761    29.183791532    24.853851034
    176      0   2 -0.675000    24.937697760    31.456637813    24.728375235
    177      0   2 -0.675000    19.233235580    34.364122865    25.291162387
    178      0   2 -0.900000    27.281807765     3.677282429    24.854976431
    179      0   2 -0.675000    25.683311454     9.129916133    24.472256685
    180      0   2 -0.675000    28.004470677    14.212960229    25.147599293
    181      0   2 -0.900000    25.861939668    19.055364525    24.360824651
    182      0   2 -0.675000    27.408387523    23.691824284    25.140511268
    183      0   2 -0.675000    26.118004371    29.101809866    24.586867471
    184      0   2 -0.675000    27.936687614    34.075012996    25.079893853
    185      0   2 -0.675000    33.024656213     1.145716069    24.639998037
    186      0   2 -0.675000    32.972808870     6.203600488    24.837554501
    187      0   2 -0.675000    33.683596747    10.915555127    24.663052872
    188      0   2 -0.675000    33.811386263    16.111962092    24.629000740
    189      0   2 -0.675000    32.892463210    21.209999995    24.540890083
    190      0   2 -0.900000    32.954433907    26.399118938    24.842257474
    191      0   2 -0.675000    33.011960205    31.493808488    24.647220319
    192      0   4  0.400000    28.498976184    34.570550285    25.640956754
    193      0   4  0.400000     8.664263498    34.608530095    24.358692068
    194      0   4  0.400000    33.110823727    32.428525221    24.564201219
    195      0   4  0.400000    16.570595628    30.490771764    25.145276945
    196      0   4  0.400000    25.872008084    29.947074024    24.907046419
    197      0   4  0.400000     8.868620514    26.425450211    24.993736866
    198      0   4  0.400000    25.317663601    27.039554496    25.017147554
    199      0   4  0.400000    25.378016045    17.600674971    24.534537311
    200      0   4  0.400000    25.361275180    10.008395371    24.648201219
    201      0   4  0.400000    25.972852288     2.245747353    24.574410714
    202      0   4  0.400000    16.910141269    20.786970086    24.983837290
    203      0   4  0.400000    34.275323981    15.327278933    24.882543111
    204      0   4  0.400000    33.488340621     5.445354100    25.080498886
    205      0   4  0.400000     2.900960446    23.048132912    25.454781741
    206      0   4  0.400000    17.087205819    10.061877309    24.778277316
    207      0   4  0.400000     9.305367024    19.850112054    25.227435635
    208      0   4  0.400000    10.493535819     8.203787712    24.946062284
    209      0   4  0.400000    17.062221221     7.412044254    24.936146049
    210      0   4  0.400000    18.956901135    23.165446124    24.831408853
    211      0   4  0.400000     7.936888406    12.613104126    24.823033106
    212      0   4  0.400000     0.821560873     2.955796040    25.017509687
    213      0   4  0.400000    10.780323367    22.553633805    25.106981147
    214      0   4  0.400000    17.120072557    28.284049149    24.778339095
    215      0   4  0.400000    25.407164712    20.696921373    24.484528722
    216      0   4  0.400000     8.462106621    17.401817881    24.931290067
    217      0   4  0.400000     1.713267500     9.440916388    25.299316073
    218      0   4  0.400000    25.082834031     7.548729357    24.999106494
    219      0   4  0.400000    28.592256367    14.605916391    25.757694156
    220      0   4  0.400000     1.012433346    17.878780799    24.956418287
    221      0   4  0.400000    16.962541653    17.331960102    25.067758729
    222      0   4  0.400000    33.193650341    20.376875298    24.871504923
    223      0   4  0.400000    17.378315675     0.536800742    24.928431282
    224      0   4  0.400000    32.969184057     0.250972454    24.914803163
    225      0   4  0.400000     8.476211271     5.625856968    24.755949900
    226      0   4  0.400000     8.107886663    32.416241482    24.778228913
    227      0   4  0.400000    19.882637847    34.152666556    25.932915102
    228      0   4  0.400000    33.537449977    11.780491654    24.990728259
    229      0   4  0.400000    26.752319084    24.354328490    25.236732452
    230      0   4  0.400000     8.754319669     3.114812769    24.126123998
    231      0   4  0.400000    18.461295546     4.884353036    25.189640135
    232      0   4  0.400000     2.956029518    30.807108650    25.004279789
    233      0   4  0.400000    20.412260581    13.723699591    25.721090491
    234      0   4  0.400000     3.246775558    14.791198363    25.603924768
    235      0   4  0.400000     7.760505276    22.076607766    24.806724385
    236      0   4  0.400000     0.865584244    33.218158580    25.500772677
    237      0   4  0.400000    16.034381453    12.355918377    25.045332628
    238      0   4  0.400000    12.152705593    27.743005329    25.426721828
    239      0   4  0.400000    24.018292595    12.145684104    24.949047220
    240      0   4  0.400000    18.477539647    19.061465776    25.735228105
    241      0   4  0.400000    24.707387550    32.326943097    25.001092020
    242      0   1 -0.550000     3.443837736     5.864766215    11.275614183
    243      0   1 -0.550000     8.780755112     5.480216314     2.922636485
    244      0   1 -0.550000     6.311570212     5.793246855     7.425938905
    245      0   1 -0.550000     2.338677464     9.578348196     6.770933398
    246      0   1 -0.550000     7.572453962     9.680378415    11.171735140
    247      0   1 -0.550000     5.341494440     9.708380088     3.252762942
    248      0   1 -0.550000     5.071632087     8.919229654    11.741544174
    249      0   1 -0.550000     2.792790236     9.484930998     3.695181522
    250      0   1 -0.550000     8.088092891     8.906536670     7.795013216
    251      0   1 -0.550000     3.033157667     6.847027389     8.855332286
    252      0   2 -0.675000    10.564761287     6.547875056     1.337955647
    253      0   1 -0.550000     5.906141235     6.357622680     4.952743624
    254      0   1 -0.550000     2.645768879     8.342475209    10.935225145
    255      0   1 -0.550000     5.776321267     8.308197711     6.701636609
    256      0   1 -0.550000     1.449884843     7.146005653     6.741386308
    257      0   1 -0.550000     6.945336177     7.148062781    10.973981237
    258      0   1 -0.550000     4.107503089     7.314812770     3.303966760
    259      0   2 -0.675000     6.263931309     6.748588700     2.425701323
    260      0   1 -0.550000     1.011196172     6.311803130    10.392578644
    261      0   1 -0.550000     3.908229924     6.490722857     6.409755620
    262      0   1 -0.550000     0.594192057     8.842585401     4.946231625
    263      0   1 -0.550000     5.949403440     8.914731927     9.225797055
    264      0   2 -0.675000     3.714401745     8.922890811     1.340373646
    265      0   3  1.100000     9.021586995     6.658797846     1.885902742
    266      0   3  1.100000     2.535989777     6.840751044    10.401787152
    267      0   3  1.100000     5.493831105     6.726968852     6.380659181
    268      0   3  1.100000     1.004488007     8.671371980     6.488738224
    269      0   3  1.100000     6.416835969     8.648880749    10.811869830
    270      0   3  1.100000     3.999364502     8.875432938     2.926194071
    271      0   3  1.100000     3.482757094     9.263364967    11.849066935
    272      0   3  1.100000     1.240068176     9.424500592     3.647276893
    273      0   3  1.100000     6.520431093     9.246522395     7.739099268
    274      0   3  1.100000     2.641001654     6.340431970     7.331931268
    275      0   3  1.100000     8.175519323     6.208656793    11.341333396
    276      0   3  1.100000     5.221262686     6.257824177     3.503078789
    277      0   4  0.400000    10.634734488     7.129142566     0.602523486
    278      0   4  0.400000     3.318538002     8.054800417     1.191477348
    279      0   4  0.400000     6.710151945     7.517964893     2.750829785
    280      0   1 -0.550000     2.505041515     5.567357167    23.459107528
    281      0   1 -0.550000     8.870653641     5.764722976    15.244669855
    282      0   1 -0.550000     5.771544334     5.809705957    19.285009530
    283      0   1 -0.550000     1.761997364     9.661339979    19.263942895
    284      0   1 -0.550000     6.982484844     9.711797030    23.492032290
    285      0   1 -0.550000     4.666838309     9.702695577    15.174512235
    286      0   1 -0.550000     4.563042569     8.631968549    23.550199499
    287      0   1 -0.550000     2.297830607     8.911698456    15.861449390
    288      0   1 -0.550000     7.742830567     8.929342264    19.736631189
    289      0   1 -0.550000     2.654037165     6.452679240    20.888174513
    290      0   1 -0.550000     8.620802535     6.349009658    12.846316410
    291      0   1 -0.550000     5.616167576     6.636829341    16.880826728
    292      0   1 -0.550000     2.094732062     8.130394102    22.876047443
    293      0   1 -0.550000     5.368220075     8.364548155    18.759919216
    294      0   1 -0.550000     1.035750383     7.105381663    18.872806368
    295      0   1 -0.550000     6.583837956     7.297028667    22.485110328
    296      0   1 -0.550000     4.004041376     7.188024270    14.871620623
    297      0   1 -0.550000     6.544785187     6.539680839    14.393698247
    298      0   1 -0.550000     0.313549341     6.288614585    22.363543801
    299      0   1 -0.550000     3.457701594     6.617057739    18.308098144
    300      0   1 -0.550000     0.136334379     8.943395581    17.245395998
    301      0   1 -0.550000     5.614296827     9.357584440    21.252676654
    302      0   1 -0.550000     2.968544873     9.070218374    13.394263134
    303      0   3  1.100000     8.124172274     6.702106650    14.268421861
    304      0   3  1.100000     1.922992842     6.567472070    22.387194899
    305      0   3  1.100000     5.050284733     6.877120484    18.277027326
    306      0   3  1.100000     0.577528608     8.656447280    18.778865367
    307      0   3  1.100000     5.933902801     8.750702086    22.701216092
    308      0   3  1.100000     3.515495959     8.711542352    14.863869207
    309      0   3  1.100000     3.038606139     9.137867174    23.652687591
    310      0   3  1.100000     0.721920747     9.261412280    15.812557817
    311      0   3  1.100000     6.209611371     9.358176793    19.762799622
    312      0   3  1.100000     2.267947896     6.152968849    19.313495885
    313      0   3  1.100000     7.762807963     6.293984734    22.903740097
    314      0   3  1.100000     5.230249054     6.237877986    15.359810761
    315      0   1 -0.550000     3.307914186    10.775236036    11.323379371
    316      0   1 -0.550000     9.208466818    10.409132737     3.448847259
    317      0   1 -0.550000     6.241448463    10.827716440     7.321265174
    318      0   1 -0.550000     2.390050897    14.676455726     6.786899222
    319      0   1 -0.550000     7.743665385    14.607936064    11.020951738
    320      0   1 -0.550000     5.076342314    14.623452597     3.305364621
    321      0   1 -0.550000     5.256707368    14.030693187    11.587184183
    322      0   1 -0.550000     2.739619480    13.600742541     3.462759481
    323      0   1 -0.550000     8.318902474    14.141022585     7.616339229
    324      0   1 -0.550000     3.156680407    11.403250845     8.625645748
    325      0   2 -0.900000     9.399655637    10.933826621     0.941248777
    326      0   1 -0.550000     6.169890547    11.529864757     4.749875583
    327      0   1 -0.550000     2.924922008    13.183379916    10.519246968
    328      0   1 -0.550000     5.850719157    13.385731884     6.727606123
    329      0   1 -0.550000     1.516475166    12.134376659     6.684742826
    330      0   1 -0.550000     6.874813695    12.159064272    10.758472723
    331      0   1 -0.550000     4.699510219    12.147975838     2.610324364
    332      0   1 -0.550000     7.173673663    11.417303123     2.321882005
    333      0   1 -0.550000     1.003181830    11.431529989    10.191445590
    334      0   1 -0.550000     4.078405664    11.498062671     6.186568741
    335      0   1 -0.550000     0.658854818    13.952200170     5.028930506
    336      0   1 -0.550000     6.098499397    14.055311173     9.171340692
    337      0   2 -0.675000     3.704446400    14.137534976     1.114285045
    338      0   3  0.725000     8.748149907    11.453429386     2.375192734
    339      0   3  1.100000     2.592678270    11.649260274    10.163157660
    340      0   3  1.100000     5.619374931    11.862387871     6.230412811
    341      0   3  1.100000     1.144296797    13.677352499     6.545983892
    342      0   3  1.100000     6.507402552    13.683628324    10.647836364
    343      0   3  1.100000     4.058561680    13.619641721     2.592357753
    344      0   3  1.100000     3.628712651    14.132548818    11.615604396
    345      0   3  1.100000     1.205304740    14.094365947     3.496387615
    346      0   3  1.100000     6.656832536    14.350697907     7.744862483
    347      0   3  1.100000     2.760959864    11.152637690     7.095819111
    348      0   3  1.100000     8.017503703    11.230852198    11.236327969
    349      0   3  1.100000     5.850117809    11.197760446     3.243872309
    350      0   4  0.400000     3.852012665    13.430341115     0.511712464
    351      0   1 -0.550000     3.113281057    10.579055972    22.953624782
    352      0   1 -0.550000     8.603998643    10.827716440    15.449181073
    353      0   1 -0.550000     5.924815876    10.784476744    19.119254405
    354      0   1 -0.550000     1.896621270    14.649257367    19.085401685
    355      0   1 -0.550000     6.945202267    14.705328262    23.382853023
    356      0   1 -0.550000     4.875833100    14.580108979    14.794506275
    357      0   1 -0.550000     4.591772364    13.578425379    23.669977237
    358      0   1 -0.550000     2.368970864    14.166303591    15.539412214
    359      0   1 -0.550000     7.555750627    13.852889578    19.496874327
    360      0   1 -0.550000     2.756767354    11.717884897    20.557854813
    361      0   1 -0.550000     8.408667094    11.632383407    12.790004130
    362      0   1 -0.550000     5.638517011    11.600302812    16.700230188
    363      0   1 -0.550000     2.182228685    13.110395782    22.721686464
    364      0   1 -0.550000     5.141519868    13.249354539    18.598734780
    365      0   1 -0.550000     1.213609738    12.171721922    18.493729353
    366      0   1 -0.550000     6.667856916    12.224864307    22.619000934
    367      0   1 -0.550000     3.926837610    12.184101062    14.903950108
    368      0   1 -0.550000     6.265468031    11.471387037    14.223040736
    369      0   1 -0.550000     0.794865173    11.143188100    22.172481073
    370      0   1 -0.550000     3.589091886    11.138480452    18.153208032
    371      0   1 -0.550000     0.233294468    14.054230389    17.077784955
    372      0   1 -0.550000     5.467506203    14.132548818    21.213125874
    373      0   1 -0.550000     3.039261000    13.849681519    13.056790255
    374      0   3  1.100000     7.818965297    11.778245676    14.323474486
    375      0   3  1.100000     2.255981420    11.647621430    22.086291487