LAMMPS 2005 data file for silica_Q3_Q4_2_4OH_n

   2100 atoms
   2736 bonds
   5396 angles
   8040 dihedrals
   3128 impropers

   5 atom types
   3 bond types
   4 angle types
   3 dihedral types
   3 improper types

     0.000000000    33.367500000 xlo xhi
     0.000000000    34.842000000 ylo yhi
     0.000000000    66.858400000 zlo zhi

Masses

   1  15.999400
   2  15.999400
   3  28.086000
   4   1.008000
   5  22.989771

Pair Coeffs

   1   0.0400000000   3.6000000000 
   2   0.1200000000   3.6000000000 
   3   0.0800000000   4.2000000000 
   4   0.0130000000   1.0980000000 
   5   0.0800000000   3.3000000000 

Bond Coeffs

  1     1.6800   285.0000     0.0000     0.0000 
  2     1.6800   285.0000     0.0000     0.0000 
  3     0.9450   495.0000     0.0000     0.0000 

Angle Coeffs

  1   149.0000   100.0000     0.0000     0.0000 
  2   115.0000    50.0000     0.0000     0.0000 
  3   109.5000   100.0000     0.0000     0.0000 
  4   109.5000   100.0000     0.0000     0.0000 

Atoms

      1      0   1 -0.550000     3.608119221     0.011778367    10.806404633
      2      0   1 -0.550000     9.372835846     0.121666183     3.528187537
      3      0   1 -0.550000     6.568559949    -0.153709673     6.941626570
      4      0   1 -0.550000     1.700166209     4.937268992     6.425768225
      5      0   1 -0.550000     7.638396925     3.790312907    11.258235563
      6      0   1 -0.550000     5.104941030     4.233658418     2.734589265
      7      0   1 -0.550000     5.157622803     3.055431805    11.694830932
      8      0   1 -0.550000     2.531539675     3.780162435     2.834355911
      9      0   1 -0.550000     8.016074185     2.723215879     7.921980310
     10      0   1 -0.550000     3.114259781     1.310368167     8.513836577
     11      0   1 -0.550000    10.151263252     2.259035619     1.967719403
     12      0   1 -0.550000     6.109398877     0.999201426     4.558362280
     13      0   1 -0.550000     2.723546726     2.495806095    10.853276482
     14      0   1 -0.550000     5.684196669     2.274357065     6.831366649
     15      0   1 -0.550000     2.322265425     2.376677991     6.204868000
     16      0   1 -0.550000     6.939167153     1.350382878    10.787669081
     17      0   1 -0.550000     4.496094800     1.737361945     2.568772447
     18      0   1 -0.550000     7.260325417     1.174144923     2.182090328
     19      0   1 -0.550000     1.158158541     0.580801383    10.130169428
     20      0   1 -0.550000     4.084194594     0.441031342     6.238588010
     21      0   1 -0.550000     0.519889325     3.452036367     4.520987894
     22      0   1 -0.550000     5.979277257     3.280866620     9.260382225
     23      0   2 -0.675000     3.944963428     3.412256672     0.576025713
     24      0   3  1.100000     8.844236426     1.403947583     2.678652133
     25      0   3  1.100000     2.666915294     1.094857313    10.060330275
     26      0   3  1.100000     5.621556090     0.851988502     6.108938615
     27      0   3  1.100000     1.131123791     3.458426249     6.067973888
     28      0   3  1.100000     6.422557621     2.873929201    10.748546693
     29      0   3  1.100000     3.975731641     3.251829876     2.198595855
     30      0   3  1.100000     3.630076163     3.519268117    11.703645168
     31      0   3  1.100000     0.874576164     3.692445682     2.915352912
     32      0   3  1.100000     6.529592056     3.253085287     7.767541836
     33      0   3  1.100000     2.765416775     1.011067074     6.956512263
     34      0   3  1.100000     8.149866469     0.408751881    11.291935692
     35      0   3  1.100000     5.804832776     0.793058918     2.968898205
     36      0   4  0.400000     4.768929906     3.778308631     0.313175898
     37      0   1 -0.550000     2.633569324    -0.594947940    22.993812095
     38      0   1 -0.550000     8.780078423     0.031265306    15.299033982
     39      0   1 -0.550000     6.065147854    -0.222989425    19.108426643
     40      0   1 -0.550000     1.610721396     3.810574702    18.903569564
     41      0   1 -0.550000     6.643902924     4.163867278    23.581669332
     42      0   1 -0.550000     4.799923838     4.162068501    15.189911013
     43      0   1 -0.550000     3.968320565     3.595286010    23.637960751
     44      0   1 -0.550000     2.316147640     3.387473134    15.639778110
     45      0   1 -0.550000     7.493411811     2.884407495    19.876512282
     46      0   1 -0.550000     2.342264373     0.777343429    20.693629786
     47      0   1 -0.550000     8.573561650     0.827333569    12.795408614
     48      0   1 -0.550000     5.558500019     1.009869994    16.830232298
     49      0   1 -0.550000     2.016127493     1.946600965    23.112208696
     50      0   1 -0.550000     5.080288312     2.252308982    19.127744827
     51      0   1 -0.550000     1.241037258     1.246221883    18.356496133
     52      0   1 -0.550000     5.966640089     1.764307364    22.982280130
     53      0   1 -0.550000     4.047691664     1.653767457    14.781123307
     54      0   1 -0.550000     6.464002803     0.789511829    14.347078045
     55      0   1 -0.550000     0.292607585     0.384979794    22.386308780
     56      0   1 -0.550000     3.616710809     0.222433626    18.405962357
     57      0   1 -0.550000     0.080500616     3.155982541    16.943866514
     58      0   1 -0.550000     5.388579701     3.700710216    21.333783689
     59      0   1 -0.550000     3.154843742     3.555000463    13.225764247
     60      0   3  1.100000     8.041190156     1.053467490    14.304665972
     61      0   3  1.100000     1.848793227     0.603387551    22.236316151
     62      0   3  1.100000     5.095604970     0.825643573    18.368766307
     63      0   3  1.100000     0.551545723     2.701202874    18.419689589
     64      0   3  1.100000     5.453545953     3.307634223    22.908500325
     65      0   3  1.100000     3.599432423     3.192770202    14.720011439
     66      0   3  1.100000     2.376858026     3.505307629    23.234169488
     67      0   3  1.100000     0.735854014     3.542477895    15.516673257
     68      0   3  1.100000     5.976241559     3.381092815    19.851182781
     69      0   3  1.100000     2.202295221     0.236610203    19.163279738
     70      0   3  1.100000     7.237449728     0.839341728    23.422620828
     71      0   3  1.100000     5.182847247     0.650156084    15.301252785
     72      0   2 -0.675000     7.695581235     1.412861385    24.879977713
     73      0   2 -0.900000     8.052267738     6.008267879    24.859120999
     74      0   2 -0.675000     2.415479189     8.561883924    24.361736482
     75      0   1 -0.550000    10.011659863     9.415726164    24.201278346
     76      0   1 -0.550000     2.049665673    11.751739603    24.229677893
     77      0   2 -0.675000     3.028805665    17.774503377    24.934683615
     78      0   2 -0.675000     8.003923395    21.385634218    25.124101519
     79      0   1 -0.550000     1.388676054    21.840761415    23.961094761
     80      0   2 -0.900000     8.345688201    25.733674440    25.010735748
     81      0   2 -0.675000     2.998061689    28.854437552    24.667933849
     82      0   1 -0.550000     9.640761777    31.701971400    23.870248149
     83      0   1 -0.550000     1.436977574    31.838891404    23.876040044
     84      0   2 -0.675000    16.324369160    -0.200409626    25.005998053
     85      0   2 -0.675000    11.311599632     2.913157500    25.172863829
     86      0   1 -0.550000    18.115286020     4.521407386    24.165276273
     87      0   2 -0.675000    16.749105909    11.219870326    24.479238216
     88      0   2 -0.675000    11.160855698    13.245572214    24.818744719
     89      0   2 -0.675000    16.622037360    15.701906438    24.746424879
     90      0   1 -0.550000     9.836808697    16.540127797    23.875328009
     91      0   2 -0.675000    11.635533005    23.449115289    25.214698899
     92      0   2 -0.675000    12.743759050    28.210767060    24.578118995
     93      0   2 -0.675000    16.323910987    29.705791491    24.796139760
     94      0   1 -0.550000    26.470613934     1.920853269    24.020905418
     95      0   2 -0.675000    23.571291211     6.852431461    24.894991926
     96      0   1 -0.550000    22.524981548     9.134028027    23.677942502
     97      0   2 -0.900000    19.279201610    13.254274981    25.015761511
     98      0   2 -0.675000    24.732280717    15.926607936    24.945251510
     99      0   1 -0.550000    18.236375862    19.443565002    23.973072956
    100      0   1 -0.550000    26.716577830    19.611140093    23.949605169
    101      0   2 -0.675000    20.389144182    23.551849050    24.254124228
    102      0   2 -0.900000    25.211567516    24.652844247    24.989795901
    103      0   1 -0.550000    18.529940580    26.564997301    23.989216790
    104      0   2 -0.675000    20.073413354    32.788594016    25.029199833
    105      0   2 -0.675000    28.378349503     8.047175521    25.250853389
    106      0   2 -0.675000    28.098497511    13.921193528    25.256832388
    107      0   2 -0.675000    27.902626741    22.518816399    24.902495334
    108      0   1 -0.550000    26.620697952    29.309221796    23.932823882
    109      0   2 -0.675000    27.812735659    33.031996507    24.632367601
    110      0   2 -0.675000    33.263802183     0.236070586    24.985059603
    111      0   1 -0.550000     1.104858674     4.430127247    23.922149350
    112      0   2 -0.675000    33.200847622    15.436193688    24.981115211
    113      0   2 -0.675000    33.021164797    25.422567578    24.688719614
    114      0   4  0.400000    32.645027893    25.983619361    25.341513392
    115      0   4  0.400000    26.910192005    32.772618787    24.664329267
    116      0   4  0.400000    15.848675023    30.192993033    25.443769311
    117      0   4  0.400000    12.027712326    28.573090033    25.069357166
    118      0   5  1.000000     9.144045729    23.773846346    25.336271538
    119      0   5  1.000000    23.124487764    24.790652979    25.560170293
    120      0   4  0.400000    25.425865533    16.559626092    24.913065591
    121      0   4  0.400000    29.128370542     8.102360343    25.816045796
    122      0   4  0.400000    33.093801989    16.178325420    25.547479287
    123      0   5  1.000000    21.045086141    12.577523584    25.976547981
    124      0   4  0.400000     7.468007818     2.327415412    24.903777700
    125      0   4  0.400000    19.534069655    23.286864213    24.547558471
    126      0   4  0.400000    12.331024514    23.749226638    25.778742282
    127      0   4  0.400000    10.429132817     3.232582073    25.236630668
    128      0   4  0.400000     1.867437055     7.834469093    24.590067002
    129      0   4  0.400000    24.310818872     6.986698122    25.457304902
    130      0   4  0.400000    27.760884269    13.239691515    25.809275448
    131      0   4  0.400000     3.691694076    17.962337254    25.569941701
    132      0   4  0.400000    11.888255007    13.463574621    25.367756768
    133      0   4  0.400000    17.286326130    15.072741770    24.986324653
    134      0   4  0.400000     3.651520662    28.870592005    25.342057109
    135      0   4  0.400000    15.960199595     0.492550039    25.519920439
    136      0   4  0.400000    32.782903227     0.694465124    25.645640986
    137      0   5  1.000000     8.392781978     7.853771975    25.765788462
    138      0   4  0.400000     7.363877843    20.911441098    25.627309810
    139      0   4  0.400000    17.412284176    11.855733108    24.246373226
    140      0   4  0.400000    20.760992345    32.905385067    25.656138284
    141      0   4  0.400000    27.180474467    23.098882629    25.109364835
    142      0   1 -0.550000     3.476057499     4.984857180    11.066601223
    143      0   1 -0.550000     9.183180109     4.992469470     3.773616445
    144      0   1 -0.550000     6.454745553     4.704668185     7.075735082
    145      0   1 -0.550000     1.419062079     9.819239252     7.460112296
    146      0   1 -0.550000     7.837401121     8.798263875    10.988580040
    147      0   1 -0.550000     4.701533584     8.903409810     3.894581316
    148      0   1 -0.550000     5.324426561     8.395775304    11.570799278
    149      0   1 -0.550000     2.357189430     8.430191615     2.611711020
    150      0   1 -0.550000     8.359432331     8.041030214     7.597010106
    151      0   1 -0.550000     2.002532025     5.676749357     9.002692207
    152      0   2 -0.675000     8.140913126     5.032482999     1.326339347
    153      0   1 -0.550000     4.908162521     5.517547732     5.022917775
    154      0   1 -0.550000     2.994611127     7.533155602    10.607510817
    155      0   1 -0.550000     5.949766663     7.274146659     6.789618484
    156      0   1 -0.550000     2.357952998     7.402376113     7.078080557
    157      0   1 -0.550000     6.984930964     6.339057051    11.446446534
    158      0   1 -0.550000     4.356599555     6.696857039     2.695814496
    159      0   1 -0.550000     6.819623054     6.082923618     3.387272839
    160      0   1 -0.550000     1.057475463     5.916691505    11.437793288
    161      0   1 -0.550000     4.068977489     5.554939024     7.442385160
    162      0   1 -0.550000     1.629751409     8.873315436     5.028583117
    163      0   1 -0.550000     6.401524021     7.513072973     9.297259858
    164      0   2 -0.675000     4.613560882     8.859183668     1.258359316
    165      0   3  1.100000     8.255296259     5.805407722     2.756778284
    166      0   3  1.100000     2.383573608     6.033600573    10.528330893
    167      0   3  1.100000     5.372721586     5.778784317     6.555472817
    168      0   3  1.100000     1.339254931     8.506748567     6.548668121
    169      0   3  1.100000     6.617717136     7.763252390    10.840297931
    170      0   3  1.100000     3.974419464     8.245570661     2.624747586
    171      0   3  1.100000     3.727477374     8.606544475    11.574618749
    172      0   3  1.100000     1.063456040     8.660361685     3.553690996
    173      0   3  1.100000     6.773721140     8.120510658     7.888723809
    174      0   3  1.100000     2.510492815     5.866017341     7.489077335
    175      0   3  1.100000     8.165198640     5.276265501    11.553984081
    176      0   3  1.100000     5.297783017     5.635209770     3.465608983
    177      0   4  0.400000     8.921252834     5.247605398     0.844117938
    178      0   4  0.400000     4.737531515     8.149304205     0.657330277
    179      0   1 -0.550000     2.401278785     4.239585468    21.864290368
    180      0   1 -0.550000     8.664525109     5.009710524    15.612207490
    181      0   1 -0.550000     5.992840655     4.712730338    18.959672815
    182      0   1 -0.550000     1.758426370     8.707568303    18.810276038
    183      0   1 -0.550000     7.396138331     8.947459717    23.538970386
    184      0   1 -0.550000     4.780270731     9.166254452    15.075398505
    185      0   1 -0.550000     4.841341398     8.188319726    23.402885704
    186      0   1 -0.550000     2.283568149     8.389532583    15.479998412
    187      0   1 -0.550000     7.712179602     7.604926477    19.526475843
    188      0   1 -0.550000     2.313789877     6.002323378    20.051107708
    189      0   1 -0.550000     8.685419135     5.393959806    13.043860638
    190      0   1 -0.550000     5.641138353     6.082069095    16.772766605
    191      0   1 -0.550000     2.846367104     6.681815176    22.561977847
    192      0   1 -0.550000     5.188971082     7.201316003    19.118488542
    193      0   1 -0.550000     1.239560506     6.300381263    17.905663300
    194      0   1 -0.550000     6.755971329     6.587201744    22.631709943
    195      0   1 -0.550000     4.084076981     6.643555477    14.751874495
    196      0   1 -0.550000     6.569518888     5.922987384    14.371495061
    197      0   1 -0.550000     0.470952598     5.707110313    21.926600074
    198      0   1 -0.550000     3.637218444     5.289512188    18.050620764
    199      0   1 -0.550000     0.120443348     8.379535437    16.855976703
    200      0   1 -0.550000     6.081356356     8.665305616    21.202313703
    201      0   1 -0.550000     3.192636040     8.413761276    13.068735833
    202      0   3  1.100000     8.161997371     5.960463244    14.429898056
    203      0   3  1.100000     2.017344078     5.724210715    21.539995955
    204      0   3  1.100000     5.114934908     5.836959052    18.250309784
    205      0   3  1.100000     0.627242170     7.741529843    18.212136374
    206      0   3  1.100000     6.276402195     8.112403879    22.695501079
    207      0   3  1.100000     3.599585173     8.163445887    14.597797406
    208      0   3  1.100000     3.281305051     8.170989969    23.038578944
    209      0   3  1.100000     0.695611405     8.610642634    15.394351821
    210      0   3  1.100000     6.274392216     8.269869773    19.659311635
    211      0   3  1.100000     2.191666474     5.302008616    18.668390644
    212      0   3  0.725000     7.592593717     5.443852738    23.378198822
    213      0   3  1.100000     5.274106373     5.700838161    15.265930155
    214      0   1 -0.550000     3.351298571    10.113487874    11.147009457
    215      0   1 -0.550000     8.155061323     9.736045344     2.691568358
    216      0   1 -0.550000     6.321532571     9.643901275     8.022175384
    217      0   1 -0.550000     1.540401865    14.701668655     6.556159359
    218      0   1 -0.550000     7.443231708    13.893976807    11.591306989
    219      0   1 -0.550000     5.262741739    13.854688763     3.791339584
    220      0   1 -0.550000     5.006061459    12.902945383    11.871144165
    221      0   1 -0.550000     3.158414238    12.744509124     2.532943730
    222      0   1 -0.550000     8.092286831    12.799498918     8.037397252
    223      0   1 -0.550000     1.739864191    11.296958972     9.516112959
    224      0   1 -0.550000     5.976136497    11.715874741     2.367735073
    225      0   1 -0.550000     4.833876654    10.042693405     6.168658124
    226      0   1 -0.550000     2.408822006    12.579470828    11.584036150
    227      0   1 -0.550000     5.704125877    12.133374480     7.321749822
    228      0   1 -0.550000     2.280937196    12.277819335     7.195953266
    229      0   1 -0.550000     6.951967308    11.327903886    10.947287370
    230      0   1 -0.550000     4.394766157    11.477925931     4.199155193
    231      0   1 -0.550000     6.675396840    10.653267385     4.430585214
    232      0   1 -0.550000     0.840163606    10.462992199    11.743000763
    233      0   1 -0.550000     3.840593201    10.546227347     8.319203202
    234      0   1 -0.550000     1.474824462    12.621963315     4.737068366
    235      0   1 -0.550000     6.039180643    13.339383979     9.541083384
    236      0   3  1.100000     7.379315373    11.122682916     3.089840688
    237      0   3  1.100000     2.100538533    11.115689045    11.027453149
    238      0   3  1.100000     5.196928535    10.624902231     7.526990566
    239      0   3  1.100000     1.263797334    13.112007894     6.307775290
    240      0   3  1.100000     6.367679030    12.849329882    11.011995357
    241      0   3  1.100000     4.688258321    12.521640038     3.087592740
    242      0   3  1.100000     3.553656960    13.591645445    12.028760152
    243      0   3  1.100000     1.638844405    13.071247216     3.164409405
    244      0   3  1.100000     6.562455750    13.261438239     8.045964743
    245      0   3  1.100000     2.325567503    10.971461604     8.105362591
    246      0   3  1.100000     8.216816387    10.346530890    11.238498651
    247      0   3  1.100000     5.151381355    10.220269660     4.692880924
    248      0   1 -0.550000     3.018732710     9.265000013    21.893980945
    249      0   1 -0.550000     8.699076062    10.036159057    15.352833458
    250      0   1 -0.550000     6.237684871     9.599017843    18.759182831
    251      0   1 -0.550000     1.875807568    13.487806538    18.841052647
    252      0   1 -0.550000     7.602486085    14.324134585    23.705196503
    253      0   1 -0.550000     4.669562557    14.062026934    15.687944461
    254      0   1 -0.550000     5.077498061    12.702048861    23.997556052
    255      0   1 -0.550000     2.198661683    13.207139495    15.774030764
    256      0   1 -0.550000     7.951820643    12.841770424    19.488754052
    257      0   1 -0.550000     2.492862921    10.910685626    20.022603621
    258      0   1 -0.550000     8.647259287    10.492506490    12.762885195
    259      0   1 -0.550000     5.746605308    11.066834594    16.668272686
    260      0   1 -0.550000     3.344342359    11.929401734    22.183261180
    261      0   1 -0.550000     5.436892129    12.098584230    19.158447716
    262      0   1 -0.550000     1.270938458    11.145102109    18.008651173
    263      0   1 -0.550000     7.772502924    11.562568483    23.913791699
    264      0   1 -0.550000     4.091548001    11.693396386    14.759502755
    265      0   1 -0.550000     6.526009423    10.914169184    14.189045337
    266      0   1 -0.550000     1.010227526    10.946400677    22.146655016
    267      0   1 -0.550000     3.795950867    10.244884163    18.002337707
    268      0   1 -0.550000     0.071975434    13.191898363    17.095517870
    269      0   1 -0.550000     6.462083848    12.614068887    21.676793467
    270      0   1 -0.550000     3.318381185    13.855967163    13.558081672
    271      0   3  1.100000     8.120614076    10.988205278    14.176303084
    272      0   3  1.100000     2.473504482    10.744656325    21.548079801
    273      0   3  1.100000     5.312320225    10.776611954    18.179226764
    274      0   3  1.100000     0.665459852    12.570666489    18.381369795
    275      0   3  1.100000     6.729043474    12.838214214    23.342677104
    276      0   3  1.100000     3.563692286    13.190830092    14.960959200
    277      0   3  1.100000     3.357993512    12.709907989    23.569117947
    278      0   3  1.100000     0.638910785    13.540953489    15.699259841
    279      0   3  1.100000     6.442977400    13.069249804    20.039415258
    280      0   3  1.100000     2.341020007    10.192821181    18.661289137
    281      0   3  1.100000     8.539578827    10.089084603    23.509858125
    282      0   3  1.100000     5.281950429    10.704380663    15.167112706
    283      0   1 -0.550000     3.463696268    14.999674575    11.253278126
    284      0   1 -0.550000     9.200658377    14.808909817     3.684206674
    285      0   1 -0.550000     6.462665440    14.708209155     7.353423179
    286      0   1 -0.550000     1.662983130    19.910826022     7.373276044
    287      0   1 -0.550000     7.829591121    18.807784299    11.348940500
    288      0   1 -0.550000     4.597152393    18.616762953     2.107315131
    289      0   1 -0.550000     5.366152105    18.114177045    11.763813437
    290      0   1 -0.550000     2.574913824    18.309967403     3.734536289
    291      0   1 -0.550000     8.121109033    17.799406301     7.896300991
    292      0   1 -0.550000     2.828555829    15.502167576     8.775031150
    293      0   2 -0.675000     9.019346547    15.548957360     1.166520340
    294      0   1 -0.550000     6.033407767    15.901720742     5.092110874
    295      0   1 -0.550000     3.148278945    17.484727842    10.595633655
    296      0   1 -0.550000     5.647781297    17.205336171     7.270704651
    297      0   1 -0.550000     2.254892018    17.318296650     6.880568767
    298      0   1 -0.550000     7.014786422    16.401138053    10.726101295
    299      0   1 -0.550000     4.200694027    16.227122139     3.310017930
    300      0   1 -0.550000     6.840578071    15.683195713     2.680017280
    301      0   1 -0.550000     1.050923763    15.975202582    10.598803006
    302      0   1 -0.550000     4.021504085    15.374439170     6.553242022
    303      0   1 -0.550000     0.628943487    18.795903919     5.438348519
    304      0   1 -0.550000     6.222379455    18.538037289     9.362688823
    305      0   3  1.100000     8.461042278    15.834648730     2.674106808
    306      0   3  1.100000     2.617341491    15.989875651    10.300811671
    307      0   3  1.100000     5.554063509    15.782121945     6.584381944
    308      0   3  1.100000     1.107533140    18.479627548     6.900571352
    309      0   3  1.100000     6.605923356    17.952802217    10.801484905
    310      0   3  1.100000     3.433721783    17.502911033     2.656578976
    311      0   3  1.100000     3.818124629    18.430338634    11.733344273
    312      0   3  1.100000     0.995228537    18.463576044     3.959983637
    313      0   3  1.100000     6.616141717    18.319648434     7.844390849
    314      0   3  1.100000     2.612697257    15.748728344     7.193621575
    315      0   3  1.100000     8.050602867    15.381234804    11.396938038
    316      0   3  1.100000     5.580250517    15.432071431     3.662108628
    317      0   4  0.400000     9.156453458    16.387101206     0.768652619
    318      0   1 -0.550000     2.779198112    14.273885193    23.403003779
    319      0   1 -0.550000     8.883824316    15.053446081    15.171995035
    320      0   1 -0.550000     5.992789467    14.642553578    19.766171913
    321      0   1 -0.550000     2.014137750    18.404823265    18.829073867
    322      0   1 -0.550000     7.537400180    19.313825891    23.523533843
    323      0   1 -0.550000     4.867821842    19.065768256    15.125537383
    324      0   1 -0.550000     5.274548318    17.925422687    23.604854427
    325      0   1 -0.550000     2.389529221    18.447996665    15.719927347
    326      0   1 -0.550000     7.784175919    17.662497611    19.589252615
    327      0   1 -0.550000     2.483802328    14.861286630    20.906453696
    328      0   1 -0.550000     8.399272176    15.985872908    12.831518594
    329      0   1 -0.550000     5.773454191    15.775809155    17.246247284
    330      0   1 -0.550000     3.169946286    16.806626944    22.483750752
    331      0   1 -0.550000     5.286321451    17.214156072    19.374514117
    332      0   1 -0.550000     1.110022543    15.967033619    18.869047735
    333      0   1 -0.550000     7.438918523    16.788664294    22.563401372
    334      0   1 -0.550000     4.078325197    16.548641822    15.270127037
    335      0   1 -0.550000     6.442747311    15.628624805    14.614320094
    336      0   1 -0.550000     0.672223867    15.928056135    22.556417650
    337      0   1 -0.550000     3.652764847    15.336303438    18.602712252
    338      0   1 -0.550000     0.229798317    17.870189619    17.173768823
    339      0   1 -0.550000     6.218045213    18.716553969    21.332343662
    340      0   1 -0.550000     3.245504908    18.128467517    13.231848262
    341      0   3  1.100000     7.962087835    16.062131875    14.370003655
    342      0   3  1.100000     2.251966113    15.468860107    22.372304300
    343      0   3  1.100000     5.201580955    15.718897472    18.770069028
    344      0   3  1.100000     0.718572822    17.516413429    18.672588752
    345      0   3  1.100000     6.636009088    18.182352387    22.783335431
    346      0   3  1.100000     3.654489746    18.050230412    14.816843247
    347      0   3  1.100000     3.673606955    17.996474917    23.454837313
    348      0   3  1.100000     0.790528644    18.439987113    15.752033829
    349      0   3  1.100000     6.348780874    18.348477424    19.776363762
    350      0   3  1.100000     2.275879838    14.946078785    19.317324800
    351      0   3  1.100000     8.500974481    15.692801930    23.112735080
    352      0   3  1.100000     5.267704282    15.536468713    15.715156004
    353      0   1 -0.550000     3.642569473    19.976688982    11.290816627
    354      0   1 -0.550000     8.883046800    19.787784926     3.698263496
    355      0   1 -0.550000     6.519928280    19.632901349     6.906577838
    356      0   1 -0.550000     1.649202697    24.791419100     7.022261425
    357      0   1 -0.550000     7.789009554    23.692204254    10.648756693
    358      0   1 -0.550000     4.989546464    23.673699100     3.438025656
    359      0   1 -0.550000     5.347653455    23.153023023    11.353818466
    360      0   1 -0.550000     2.747494050    23.168760016     2.110867569
    361      0   1 -0.550000     8.341213114    22.761742592     7.181750577
    362      0   1 -0.550000     3.398719727    21.035535370     8.815315938
    363      0   1 -0.550000    10.204569481    19.340233590     1.719352566
    364      0   1 -0.550000     5.834509407    19.904279920     4.300253706
    365      0   1 -0.550000     2.843924282    22.453093501    10.906365520
    366      0   1 -0.550000     5.999588757    22.032937138     6.214001742
    367      0   1 -0.550000     2.609055740    22.364684639     6.586804251
    368      0   1 -0.550000     7.086243645    21.223981802    11.013781303
    369      0   1 -0.550000     4.689192367    21.258179185     2.177451071
    370      0   1 -0.550000     7.180097106    19.921601898     1.899895792
    371      0   1 -0.550000     1.285862116    20.446444339    10.320562588
    372      0   1 -0.550000     4.080414786    20.235132949     6.378059453
    373      0   1 -0.550000     1.632898019    23.905054843     4.498588854
    374      0   1 -0.550000     6.296919810    22.424801974     8.871454776
    375      0   2 -0.900000     4.963019846    23.445720770     0.782845884
    376      0   3  1.100000     8.825185241    20.304535747     2.229174395