LAMMPS 2005 data file for silica_Q2_18pct_ioni

   1848 atoms
   2200 bonds
   4104 angles
   5928 dihedrals
   2016 impropers

   5 atom types
   3 bond types
   5 angle types
   4 dihedral types
   3 improper types

     0.000000000    34.742000000 xlo xhi
     0.000000000    34.251200000 ylo yhi
     0.000000000    57.765200000 zlo zhi

Masses

   1  15.999400
   2  28.086000
   3  15.999400
   4   1.008000
   5  22.989771

Pair Coeffs

   1   0.0400000000   3.6000000000 
   2   0.0800000000   4.2000000000 
   3   0.1200000000   3.6000000000 
   4   0.0130000000   1.0980000000 
   5   0.0800000000   3.3000000000 

Bond Coeffs

  1     1.6800   285.0000     0.0000     0.0000 
  2     1.6800   285.0000     0.0000     0.0000 
  3     0.9450   495.0000     0.0000     0.0000 

Angle Coeffs

  1   149.0000   100.0000     0.0000     0.0000 
  2   109.5000   100.0000     0.0000     0.0000 
  3   109.5000   100.0000     0.0000     0.0000 
  4   109.5000   100.0000     0.0000     0.0000 
  5   115.0000    50.0000     0.0000     0.0000 

Atoms

      1      0   1 -0.550000     1.691256531     1.489165476     2.764480606
      2      0   1 -0.550000     3.523770681     0.895366162     4.524119691
      3      0   1 -0.550000     3.090162064     2.809617045     6.314228848
      4      0   1 -0.550000     0.643961173     2.062168603     5.779701082
      5      0   1 -0.550000     4.093457682     3.341331113     4.045904871
      6      0   1 -0.550000     0.928622363     3.974615334     2.101217934
      7      0   2  1.100000     2.508613785     0.240977877     3.379319534
      8      0   2  1.100000     4.094351679     2.251353490     5.194364570
      9      0   2  1.100000     1.655826949     2.667133167     1.614596955
     10      0   3 -0.675000     1.007353643     2.107030462     0.204401579
     11      0   3 -0.675000     3.151450160     3.152486058     1.225862635
     12      0   4  0.400000     0.534609593     1.322252443     0.347691991
     13      0   1 -0.550000     1.710030588    10.013538523     2.401577295
     14      0   1 -0.550000     3.418300344     9.440263531     4.430403264
     15      0   1 -0.550000     3.010522824    11.244265360     6.237679074
     16      0   1 -0.550000     0.549293039    10.390887786     5.659534506
     17      0   1 -0.550000     3.961464932    11.943616947     4.046013209
     18      0   1 -0.550000     1.011446195    12.618871921     2.173393672
     19      0   2  1.100000     2.577729284     8.780940075     3.216780253
     20      0   2  1.100000     3.950734923    10.751184592     5.105196549
     21      0   2  1.100000     1.782774473    11.407786350     1.469614814
     22      0   3 -0.675000     1.158921627    11.270950781    -0.007871967
     23      0   3 -0.675000     3.246878473    11.965301261     1.021371017
     24      0   4  0.400000     3.508893824    12.550030514     1.713990800
     25      0   4  0.400000     0.363918298    10.795418392     0.024854778
     26      0   1 -0.550000     1.579650824    18.589376312     2.698391720
     27      0   1 -0.550000     3.592311962    18.044456481     4.351041178
     28      0   1 -0.550000     3.177064740    19.788345610     6.297104276
     29      0   1 -0.550000     0.669035614    19.209420280     5.698566640
     30      0   1 -0.550000     4.160726254    20.626234968     4.086445231
     31      0   1 -0.550000     1.108913673    20.968048981     2.208513997
     32      0   2  1.100000     2.462828807    17.436496324     3.333966413
     33      0   2  1.100000     4.131906713    19.381689656     5.076643210
     34      0   2  0.725000     1.381864764    19.587144879     1.481986503
     35      0   3 -0.900000     0.144970787    19.112786309     0.611287948
     36      0   3 -0.675000     2.736563970    19.502696162     0.546286639
     37      0   4  0.400000     3.169883177    20.340397463     0.751387635
     38      0   1 -0.550000     1.690878203    27.012060549     2.844311186
     39      0   1 -0.550000     3.494469422    26.397683118     4.716287634
     40      0   1 -0.550000     3.166200464    28.323709555     6.443113950
     41      0   1 -0.550000     0.754084572    27.775323693     5.999520741
     42      0   1 -0.550000     4.053942211    28.802936216     4.074055300
     43      0   1 -0.550000     0.912448237    29.382906149     2.245635442
     44      0   2  1.100000     2.591743687    25.919581326     3.485732552
     45      0   2  1.100000     4.091738103    27.734106594     5.303282793
     46      0   2  0.725000     1.484611345    27.993370319     1.622624490
     47      0   3 -0.900000     0.407402652    27.367434707     0.556515686
     48      0   3 -0.675000     2.815068355    28.335303019     0.811195065
     49      0   4  0.400000     3.575655566    27.826188377     1.069933496
     50      0   1 -0.550000     6.450650882     1.174855524     2.711880924
     51      0   1 -0.550000     8.460805292     0.783039062     4.463318328
     52      0   1 -0.550000     8.023488985     2.786709337     6.289593585
     53      0   1 -0.550000     5.552358232     2.127828170     5.796321121
     54      0   1 -0.550000     9.128403247     3.404880679     3.979016880
     55      0   1 -0.550000     5.796224836     3.713031052     2.163827916
     56      0   2  1.100000     7.484066423     0.125042980     3.346278225
     57      0   2  1.100000     8.991285839     2.240938405     5.130192193
     58      0   2  1.100000     6.176864472     2.317898648     1.539272812
     59      0   3 -0.675000     5.103968563     1.899975494     0.506187409
     60      0   3 -0.675000     7.538335017     2.504872092     0.640255557
     61      0   4  0.400000     8.304444760     2.605341523     1.172043166
     62      0   1 -0.550000     6.587664772    10.104998934     2.804792427
     63      0   1 -0.550000     8.361793306     9.567226731     4.521902791
     64      0   1 -0.550000     7.856658295    11.392263643     6.228365585
     65      0   1 -0.550000     5.368710463    10.408451513     5.728141132
     66      0   1 -0.550000     9.135659763    11.946238217     3.784030805
     67      0   1 -0.550000     5.755608844    12.522611259     2.256504835
     68      0   2  1.100000     7.502190289     8.912157767     3.366280918
     69      0   2  1.100000     8.941384990    10.938260493     5.092890781
     70      0   2  1.100000     6.394628117    11.231432904     1.627569651
     71      0   3 -0.675000     5.330914570    10.700603414     0.469905528
     72      0   3 -0.675000     7.742411212    11.614533948     0.807818232
     73      0   4  0.400000     7.704228897    11.154992778     0.000500217
     74      0   4  0.400000     4.986786420    11.448655983     0.019991724
     75      0   1 -0.550000     6.578894944    18.475450481     2.793328069
     76      0   1 -0.550000     8.436249979    17.871507441     4.425914846
     77      0   1 -0.550000     8.096432347    19.735279095     6.252159661
     78      0   1 -0.550000     5.595312606    19.203055787     5.708384662
     79      0   1 -0.550000     9.132564470    20.258891977     3.862683769
     80      0   1 -0.550000     5.828586541    20.950858562     2.120848159
     81      0   2  1.100000     7.421749552    17.314946087     3.421482055
     82      0   2  1.100000     9.040053112    19.184639945     5.068675888
     83      0   2  1.100000     6.695859121    19.644601819     1.756208418
     84      0   3 -0.675000     6.064199371    19.099511565     0.351432741
     85      0   3 -0.675000     8.206552543    20.107182933     1.369042313
     86      0   4  0.400000     8.164805327    21.031872568     1.210227154
     87      0   4  0.400000     5.171069732    19.027411430     0.414027709
     88      0   1 -0.550000     6.914551354    27.147495611     2.970606696
     89      0   1 -0.550000     8.609614609    26.463582089     4.652163606
     90      0   1 -0.550000     7.979915553    28.306418074     6.406281257
     91      0   1 -0.550000     5.612714408    27.499745377     5.809041439
     92      0   1 -0.550000     9.127508482    28.812854994     4.022314936
     93      0   1 -0.550000     5.855652424    29.447054986     2.369413211
     94      0   2  1.100000     7.675177232    25.835199562     3.504647612
     95      0   2  1.100000     9.069147848    27.805427214     5.260808017
     96      0   2  1.100000     6.445664589    28.063203478     1.724302532
     97      0   3 -0.675000     5.222170345    27.273658938     1.047424411
     98      0   3 -0.675000     7.626960859    28.341096391     0.642977494
     99      0   4  0.400000     7.429169855    27.833058292    -0.115525522
    100      0   1 -0.550000    11.457396476     1.431913450     2.413125816
    101      0   1 -0.550000    13.318946044     0.833586257     4.360000107
    102      0   1 -0.550000    12.936931463     2.538263866     6.365842967
    103      0   1 -0.550000    10.418821942     1.965601585     5.721057078
    104      0   1 -0.550000    13.870096900     3.353585347     4.106922462
    105      0   1 -0.550000    11.046629487     4.041501339     2.233642153
    106      0   2  1.100000    12.316586445     0.225558134     3.235268675
    107      0   2  1.100000    13.908339150     2.164793758     5.139019056
    108      0   2  0.725000    11.586086897     2.757061799     1.519522385
    109      0   3 -0.900000    10.690304817     2.482236249     0.171608871
    110      0   3 -0.675000    13.102558371     3.130565383     1.012982877
    111      0   1 -0.550000    11.605415058    10.060035633     2.487969490
    112      0   1 -0.550000    13.306944095     9.555177410     4.384166651
    113      0   1 -0.550000    12.835099377    11.477801851     6.109935551
    114      0   1 -0.550000    10.332534994    10.609686734     5.789344958
    115      0   1 -0.550000    14.065712284    12.078512938     4.029104865
    116      0   1 -0.550000    10.911164268    12.518833546     1.939988334
    117      0   2  1.100000    12.500922456     8.892313617     3.206823898
    118      0   2  1.100000    13.843959093    10.931110837     5.049454393
    119      0   2  1.100000    11.793946114    11.273537561     1.434692587
    120      0   3 -0.675000    11.230553475    10.840944830    -0.053237846
    121      0   3 -0.675000    13.293118791    11.842150264     1.219145005
    122      0   4  0.400000    13.254105263    12.739797293     1.515486234
    123      0   4  0.400000    10.348130255    10.679021615     0.012802776
    124      0   1 -0.550000    11.753158958    18.525794284     2.616806466
    125      0   1 -0.550000    13.439383715    17.894346168     4.557323507
    126      0   1 -0.550000    12.889058954    19.822146197     6.239361448
    127      0   1 -0.550000    10.469721073    18.857259149     5.732725801
    128      0   1 -0.550000    14.216276796    20.264848671     3.984833110
    129      0   1 -0.550000    11.165003970    21.048208715     2.258686145
    130      0   2  1.100000    12.657091294    17.323726936     3.314919065
    131      0   2  1.100000    13.989743323    19.278518742     5.179126512
    132      0   2  1.100000    11.842884551    19.766527393     1.623459745
    133      0   3 -0.675000    11.028471797    19.393943891     0.266709266
    134      0   3 -0.675000    13.341541688    20.065248700     1.188458929
    135      0   4  0.400000    13.284685604    20.910172169     0.758784008
    136      0   4  0.400000    10.250341286    18.922791931     0.508460716
    137      0   1 -0.550000    11.781427599    26.920013223     2.542593794
    138      0   1 -0.550000    13.307218776    26.336142110     4.722849248
    139      0   1 -0.550000    12.962380516    28.278452071     6.529578444
    140      0   1 -0.550000    10.489667269    27.682027810     5.889232624
    141      0   1 -0.550000    14.018046811    28.705116638     4.140517101
    142      0   1 -0.550000    11.148324232    29.435413971     2.386008852
    143      0   2  1.100000    12.506184455    25.794456261     3.460964777
    144      0   2  1.100000    13.931415487    27.687987927     5.360389023
    145      0   2  1.100000    11.788993644    28.177198036     1.577758107
    146      0   3 -0.675000    11.011138153    27.742119207     0.126509905
    147      0   3 -0.675000    13.242082319    28.638173318     1.156949685
    148      0   4  0.400000    13.819929409    28.205240523     1.755729728
    149      0   4  0.400000    10.310857107    28.314257132     0.015204485
    150      0   1 -0.550000    16.282246935     1.296508218     2.766805844
    151      0   1 -0.550000    18.304781496     0.787804823     4.410160168
    152      0   1 -0.550000    17.755627207     2.594290469     6.321319169
    153      0   1 -0.550000    15.310941741     1.874718381     5.766314172
    154      0   1 -0.550000    18.882826558     3.305761371     3.963484698
    155      0   1 -0.550000    15.506282443     3.639201319     2.142677377
    156      0   2  1.100000    17.312153623     0.187639496     3.312365511
    157      0   2  1.100000    18.812288711     2.163500368     5.115026659
    158      0   2  1.100000    16.013516001     2.202951293     1.547444499
    159      0   3 -0.675000    14.776608989     1.446413617     0.814055223
    160      0   3 -0.675000    17.237044580     2.391149145     0.517428991
    161      0   4  0.400000    18.041428455     2.561600894     1.008592105
    162      0   1 -0.550000    16.369152941     9.835144058     2.758159395
    163      0   1 -0.550000    18.077181070     9.389580910     4.674041174
    164      0   1 -0.550000    17.686157339    11.396621606     6.296203101
    165      0   1 -0.550000    15.223451524    10.645086052     5.803303105
    166      0   1 -0.550000    18.871923335    11.793985442     3.973957673
    167      0   1 -0.550000    16.002992003    12.325563577     2.214318364
    168      0   2  1.100000    17.209805996     8.738562539     3.514009003
    169      0   2  1.100000    18.718677602    10.795366788     5.190585274
    170      0   2  1.100000    16.228081346    10.860448134     1.556842040
    171      0   3 -0.675000    14.984881254    10.280262889     0.680861894
    172      0   3 -0.675000    17.565857009    10.905003637     0.559256817
    173      0   4  0.400000    14.243075425    10.837905003     0.733210900
    174      0   4  0.400000    18.383717999    11.006988597     1.059071253
    175      0   1 -0.550000    16.582755876    18.470106498     2.451394883
    176      0   1 -0.550000    18.473538545    18.116719944     4.145984591
    177      0   1 -0.550000    17.917367574    19.736504519     6.294640705
    178      0   1 -0.550000    15.367171542    19.043925222     5.904127760
    179      0   1 -0.550000    18.903357989    20.721304698     3.974552637
    180      0   1 -0.550000    16.014581930    21.020910582     2.344519414
    181      0   2  1.100000    17.380936787    17.356166167     3.197726861
    182      0   2  1.100000    18.766894487    19.446464646     5.012345035
    183      0   2  1.100000    16.601017083    19.813227387     1.546879753
    184      0   3 -0.675000    15.539573248    19.658966054     0.319517314
    185      0   3 -0.675000    18.040486466    20.208891049     0.823813201
    186      0   4  0.400000    14.782121380    19.210957637     0.668139932
    187      0   4  0.400000    18.362432462    20.792653273     1.489448672
    188      0   1 -0.550000    16.459738452    26.956686205     2.711075775
    189      0   1 -0.550000    18.353719933    26.442445564     4.486938257
    190      0   1 -0.550000    17.866639606    28.300920787     6.366504187
    191      0   1 -0.550000    15.398742512    27.482093079     5.972337744
    192      0   1 -0.550000    18.778654553    28.886023957     4.034374481
    193      0   1 -0.550000    15.782992470    29.461293179     2.309423040
    194      0   2  1.100000    17.406488334    25.810624141     3.344631890
    195      0   2  1.100000    18.828831108    27.795821575     5.255021781
    196      0   2  1.100000    16.396837371    28.173358570     1.681214661
    197      0   3 -0.675000    15.406514569    27.789470017     0.403252372
    198      0   3 -0.675000    17.838164954    28.326592546     0.998676325
    199      0   4  0.400000    18.382663877    28.985333031     1.446792531
    200      0   4  0.400000    15.395211696    28.567678918    -0.158058171
    201      0   1 -0.550000    21.298690946     1.499684032     2.598395939
    202      0   1 -0.550000    23.274384079     0.963680982     4.390259546
    203      0   1 -0.550000    22.687262222     2.638676563     6.417997881
    204      0   1 -0.550000    20.258293058     1.908383035     5.831543517
    205      0   1 -0.550000    23.623625446     3.531061759     4.224547571
    206      0   1 -0.550000    20.811231394     3.976691859     2.300524100
    207      0   2  1.100000    22.242722709     0.369676755     3.273922297
    208      0   2  1.100000    23.716549851     2.260476199     5.227255907
    209      0   2  0.725000    21.411113651     2.742255276     1.544223905
    210      0   3 -0.900000    20.629785691     2.251252047     0.203682944
    211      0   3 -0.675000    22.889102015     2.967283798     1.100949219
    212      0   1 -0.550000    21.233656982    10.026439960     2.468663608
    213      0   1 -0.550000    23.098405362     9.528661397     4.343812972
    214      0   1 -0.550000    22.683375681    11.273707984     6.318014412
    215      0   1 -0.550000    20.142637718    10.514448611     5.918891280
    216      0   1 -0.550000    23.597452791    12.060539385     4.012496913
    217      0   1 -0.550000    20.554811939    12.542386428     2.180730216
    218      0   2  1.100000    22.142988658     8.868282942     3.206932012
    219      0   2  1.100000    23.606773519    10.901327367     5.092139578
    220      0   2  0.725000    21.211338070    11.258526124     1.450717662
    221      0   3 -0.900000    20.363461296    10.804999752     0.141623410
    222      0   3 -0.675000    22.650807452    11.707016898     0.811765911
    223      0   4  0.400000    25.465029143     6.082178221     1.029457907
    224      0   4  0.400000    22.651278179    12.659119937     0.935900366
    225      0   1 -0.550000    21.216977244    18.450296839     2.638191140
    226      0   1 -0.550000    23.004207992    17.976074202     4.619356432
    227      0   1 -0.550000    22.788681260    19.849342888     6.266279867
    228      0   1 -0.550000    20.254545908    19.214117060     5.645372218
    229      0   1 -0.550000    23.828011170    20.379013906     3.928742660
    230      0   1 -0.550000    20.863162632    20.871242558     2.153781354
    231      0   2  1.100000    22.095392881    17.372912268     3.348134745
    232      0   2  1.100000    23.725698391    19.278281367     5.136501316
    233      0   2  1.100000    21.310280873    19.458309053     1.548742429
    234      0   3 -0.675000    20.190922249    19.189781043     0.419753889
    235      0   3 -0.675000    22.829434593    19.439179058     0.978685608
    236      0   4  0.400000    22.933322348    20.318684482     0.663429273
    237      0   1 -0.550000    21.576088702    27.142260489     2.779652407
    238      0   1 -0.550000    23.210967457    26.672476208     4.711787577
    239      0   1 -0.550000    22.828643346    28.503578611     6.498694047
    240      0   1 -0.550000    20.384714280    27.752735781     5.755522451
    241      0   1 -0.550000    24.043091031    29.029631942     4.219939176
    242      0   1 -0.550000    20.481767109    29.414327152     2.036913492
    243      0   2  1.100000    22.379600283    26.041370967     3.587182166
    244      0   2  1.100000    23.876502737    27.966456146     5.403236715
    245      0   2  0.725000    21.589259074    28.251200982     1.634810057
    246      0   3 -0.900000    21.136983377    27.655399577     0.204254363
    247      0   3 -0.675000    23.018583683    28.976416307     1.393221056
    248      0   4  0.400000    19.894467925    32.096470577    -0.010774156
    249      0   4  0.400000    22.757091754    29.883247830     1.568124374
    250      0   1 -0.550000    26.322184437     1.686384595     2.911283341
    251      0   1 -0.550000    28.176546159     1.018551143     4.624560239
    252      0   1 -0.550000    27.726746696     2.762133916     6.483672217
    253      0   1 -0.550000    25.219126326     2.047973777     5.858041567
    254      0   1 -0.550000    28.735125719     3.588007429     4.164924048
    255      0   1 -0.550000    25.168847278     3.998782957     2.276579828
    256      0   2  1.100000    27.225874889     0.495618938     3.521015161
    257      0   2  1.100000    28.739938798     2.386588298     5.235715675
    258      0   2  1.100000    26.271491316     2.933619144     1.889834316
    259      0   3 -0.675000    25.881773348     2.380937960     0.374627853
    260      0   3 -0.675000    27.629591374     3.674975973     1.680523670
    261      0   4  0.400000    25.004253923     2.174496358     0.363030350
    262      0   1 -0.550000    26.120721818     9.975891243     2.773307246
    263      0   1 -0.550000    28.055042559     9.437608785     4.413561176
    264      0   1 -0.550000    27.618690200    11.339844330     6.183961765
    265      0   1 -0.550000    25.065536216    10.647198082     5.648629074
    266      0   1 -0.550000    28.916159400    11.821352556     3.915343663
    267      0   1 -0.550000    25.544189555    12.505897619     2.239049877
    268      0   2  1.100000    26.970865740     8.797175921     3.410005611
    269      0   2  1.100000    28.605162334    10.732326462     5.100088993
    270      0   2  1.100000    26.191909472    11.095244538     1.646406703
    271      0   3 -0.675000    25.435653390    10.735016713     0.209906687
    272      0   3 -0.675000    27.680833857    11.508778283     1.327210178
    273      0   4  0.400000    27.695776594    12.427466947     1.092491307
    274      0   4  0.400000    24.545389925    10.904405465     0.293553820
    275      0   1 -0.550000    26.528082960    18.747553319     2.468687782
    276      0   1 -0.550000    28.163787810    18.038193431     4.518020976
    277      0   1 -0.550000    27.669795343    19.931068892     6.260571975
    278      0   1 -0.550000    25.215239785    19.058595813     5.832396791
    279      0   1 -0.550000    28.817560973    20.446274233     3.950962701
    280      0   1 -0.550000    25.764912689    21.233276057     2.330771676
    281      0   2  1.100000    27.329460633    17.524349446     3.252194926
    282      0   2  1.100000    28.740592705    19.348160935     5.158270545
    283      0   2  1.100000    26.538365074    20.048127263     1.542505493
    284      0   3 -0.675000    25.828122275    19.686536052     0.110605059
    285      0   3 -0.675000    28.010402686    20.550737523     1.188621212
    286      0   4  0.400000    27.797617246    21.278102551     0.621101025
    287      0   4  0.400000    24.942783508    19.484223837     0.283364988
    288      0   1 -0.550000    26.359256215    27.061441411     2.758496049
    289      0   1 -0.550000    28.137442966    26.386416933     4.541250531
    290      0   1 -0.550000    27.783113839    28.211934175     6.538891486
    291      0   1 -0.550000    25.320442871    27.670264176     6.042698819
    292      0   1 -0.550000    28.867565340    28.857894504     4.144308485
    293      0   1 -0.550000    25.933427855    29.660540384     2.583867227
    294      0   2  1.100000    27.222884138    25.835607360     3.371015782
    295      0   2  1.100000    28.774640935    27.751745260     5.308185760
    296      0   2  1.100000    26.614609741    28.399301975     1.917503939
    297      0   3 -0.675000    25.837475802    28.249461626     0.405124673
    298      0   3 -0.675000    28.161379220    28.556069314     1.480244029
    299      0   4  0.400000    28.611736742    27.982814398     2.069586874
    300      0   4  0.400000    25.367464388    27.442319308     0.305973298
    301      0   1 -0.550000    31.076293087     1.436712687     2.942558337
    302      0   1 -0.550000    32.949019535     0.835390409     4.558176781
    303      0   1 -0.550000    32.602531135     2.773298660     6.313327673
    304      0   1 -0.550000    30.209914247     2.145698252     5.826664724
    305      0   1 -0.550000    33.632128293     3.273628497     3.957121405
    306      0   1 -0.550000    30.457117516     3.855140607     2.210851323
    307      0   2  1.100000    32.007256971     0.254933299     3.440637742
    308      0   2  1.100000    33.533013301     2.208397732     5.143982012
    309      0   2  0.725000    30.730249507     2.373040674     1.682764857
    310      0   3 -0.675000    29.385871235     1.664565363     1.082286426
    311      0   3 -0.900000    31.939299901     2.246963065     0.454961455
    312      0   1 -0.550000    31.173136830     9.983379717     2.261750500
    313      0   1 -0.550000    32.994036584     9.467596154     4.225148355
    314      0   1 -0.550000    32.452483188    11.128909192     6.209137823
    315      0   1 -0.550000    29.995004525    10.322675930     5.788191292
    316      0   1 -0.550000    33.637252951    11.923433980     3.950638135
    317      0   1 -0.550000    30.649499241    12.563458030     2.040008065
    318      0   2  1.100000    32.029989955     8.826074814     3.126134000
    319      0   2  1.100000    33.499276650    10.725450700     5.018041288
    320      0   2  0.725000    31.263757189    11.253591969     1.312765518
    321      0   3 -0.900000    30.337780622    11.068218271    -0.006790377
    322      0   3 -0.675000    32.783632461    11.496659981     0.621724941
    323      0   4  0.400000    34.398762434     6.025789373    -0.071197439
    324      0   4  0.400000    32.692573777    12.392546506     0.258919220
    325      0   1 -0.550000    31.215884681    18.569158854     2.421501868
    326      0   1 -0.550000    33.021447356    18.070190373     4.292817544
    327      0   1 -0.550000    32.620069765    19.920721774     6.370289303
    328      0   1 -0.550000    30.193544039    19.135694018     5.782597558
    329      0   1 -0.550000    33.616274650    20.603564635     4.051102410
    330      0   1 -0.550000    30.643138515    21.183409033     2.211296091
    331      0   2  1.100000    32.131201958    17.432718612     3.144243911
    332      0   2  1.100000    33.568711671    19.386045590     5.137535004
    333      0   2  1.100000    31.045409846    19.836611874     1.422134552
    334      0   3 -0.675000    29.995521090    19.535543191     0.262613797
    335      0   3 -0.675000    32.420980888    20.106298356     0.547195146
    336      0   4  0.400000    29.143563380    19.687343078     0.660323615
    337      0   4  0.400000    33.052173872    19.519789881     0.904864558
    338      0   1 -0.550000    31.460749056    27.141930326     2.784952017
    339      0   1 -0.550000    33.278416174    26.584793509     4.622571207
    340      0   1 -0.550000    32.615564166    28.370999056     6.467869638
    341      0   1 -0.550000    30.236910947    27.548250094     5.899585174
    342      0   1 -0.550000    33.710779499    29.118315623     4.289170312
    343      0   1 -0.550000    30.600320969    29.543615157     2.223217079
    344      0   2  1.100000    32.306149594    26.009749362     3.468451517
    345      0   2  1.100000    33.674359577    27.930879177     5.375374591
    346      0   2  1.100000    31.263138130    28.164637826     1.582546917
    347      0   3 -0.675000    30.153616800    27.495405483     0.521062960
    348      0   3 -0.675000    32.603562216    28.430695589     0.758210996
    349      0   4  0.400000    33.365742125    28.164128087     1.262254273
    350      0   4  0.400000    29.677611872    28.197243964     0.084194431
    351      0   4  0.400000     3.194166105     4.004754446     1.648862783
    352      0   4  0.400000     4.251260074     2.158699082     0.813842508
    353      0   4  0.400000    13.002077991     3.990651831     0.619240960
    354      0   4  0.400000    14.040716495     2.022489072     1.019356945
    355      0   4  0.400000    22.959899311     3.922182340     0.968197499
    356      0   4  0.400000    28.236601893     2.962551810     1.431498660
    357      0   4  0.400000    29.684537444     0.770303616     0.909648563
    358      0   5  1.000000    -0.553795296    25.430387126    -0.825276037
    359      0   5  1.000000    11.006038794     0.654367437    -0.336916305
    360      0   5  1.000000     6.616789107    32.264923961    -0.793062363
    361      0   5  1.000000    -1.310605274    18.144253596    -0.578909880
    362      0   5  1.000000    11.492583145    24.847339393    -0.785131511
    363      0   5  1.000000    22.280459511     0.413792486     0.626832642
    364      0   5  1.000000    15.433030737     7.143561763    -1.097467020
    365      0   5  1.000000    19.255164017    25.964552423    -0.440034642
    366      0   5  1.000000    30.019339841     9.757901572    -1.508530023
    367      0   5  1.000000    25.412900857    16.603517136    -0.858195134
    368      0   5  1.000000    33.339151101    30.394426802    -0.180592538
    369      0   1 -0.550000     1.674484036     1.513026742     8.128895372
    370      0   1 -0.550000     3.604383095     0.926238616     9.836968911
    371      0   1 -0.550000     3.193716804     2.788343573    11.604587182
    372      0   1 -0.550000     0.687383236     2.198287989    11.021029294
    373      0   1 -0.550000     4.129155540     3.441915247     9.358561589
    374      0   1 -0.550000     1.026461316     3.975262536     7.552847727
    375      0   2  1.100000     2.556936495     0.339961252     8.771037275