LAMMPS 2005 data file for Q3_18pct_ionized

   2184 atoms
   2780 bonds
   5412 angles

   5 atom types
   3 bond types
   4 angle types

     0.000000000    33.407100000 xlo xhi
     0.000000000    34.870300000 ylo yhi
     0.000000000    66.249200000 zlo zhi

Masses

   1  15.999400
   2  15.999400
   3  28.086000
   4   1.008000
   5  22.989771

Pair Coeffs

   1   0.0400000000   3.6000000000 
   2   0.1200000000   3.6000000000 
   3   0.0800000000   4.2000000000 
   4   0.0130000000   1.0980000000 
   5   0.0800000000   3.3000000000 

Bond Coeffs

  1     1.6800   285.0000     0.0000     0.0000 
  2     1.6800   285.0000     0.0000     0.0000 
  3     0.9450   495.0000     0.0000     0.0000 

Angle Coeffs

  1   149.0000   100.0000     0.0000     0.0000 
  2   115.0000    50.0000     0.0000     0.0000 
  3   109.5000   100.0000     0.0000     0.0000 
  4   109.5000   100.0000     0.0000     0.0000 

Atoms

      1      0   1 -0.550000     3.008374432     0.369579755    11.015628026
      2      0   1 -0.550000     8.841983197     0.350642235     3.238572469
      3      0   1 -0.550000     5.961821389     0.312417965     6.966088286
      4      0   1 -0.550000     1.981065908     4.177705954     6.875259138
      5      0   1 -0.550000     7.257634499     4.212408802    10.839236311
      6      0   1 -0.550000     4.698963761     4.181925841     3.273753250
      7      0   1 -0.550000     4.855617721     3.594687089    11.438370953
      8      0   1 -0.550000     2.325861637     3.448243523     3.427974412
      9      0   1 -0.550000     7.765694190     3.420482700     7.498059971
     10      0   1 -0.550000     2.812821660     1.153483915     8.444582123
     11      0   2 -0.675000     8.804689373     1.342928746     0.783400495
     12      0   1 -0.550000     5.740760956     1.085894018     4.477939688
     13      0   1 -0.550000     2.431032608     2.871014010    10.487167880
     14      0   1 -0.550000     5.502472527     2.822536247     6.386354543
     15      0   1 -0.550000     1.122767659     1.656183585     6.482651790
     16      0   1 -0.550000     6.486376732     1.658346537    10.725716104
     17      0   1 -0.550000     4.101054612     1.695174919     2.480209973
     18      0   1 -0.550000     6.545139380     0.935788713     2.036850260
     19      0   1 -0.550000     0.656039635     0.965084702    10.024633975
     20      0   1 -0.550000     3.620137421     1.063015166     5.965868030
     21      0   1 -0.550000     0.231180594     3.565879610     4.922729400
     22      0   1 -0.550000     5.603872324     3.365309246     8.973628414
     23      0   2 -0.675000     3.359245830     3.778622162     1.068631557
     24      0   3  1.100000     8.046353100     1.416447272     2.186832289
     25      0   3  1.100000     2.219989168     1.325456754     9.969303870
     26      0   3  1.100000     5.203051282     1.299543950     5.978403287
     27      0   3  1.100000     0.736471109     3.237558945     6.445754235
     28      0   3  1.100000     6.047595194     3.227270114    10.502576215
     29      0   3  1.100000     3.644844082     3.226538390     2.591220658
     30      0   3  1.100000     3.243256864     3.875123478    11.548380106
     31      0   3  1.100000     0.795534257     3.877495345     3.449046550
     32      0   3  1.100000     6.229323977     3.728366019     7.491233083
     33      0   3  1.100000     2.363823127     0.723394353     6.939105777
     34      0   3  1.100000     7.734344692     0.702155644    11.074339361
     35      0   3  1.100000     5.275535430     0.699120652     3.001038130
     36      0   4  0.400000     4.017930225     3.286752912     0.568518897
     37      0   4  0.400000     9.669841541     1.674284239     0.890099336
     38      0   1 -0.550000     2.544751904     0.345759224    22.906975338
     39      0   1 -0.550000     8.490609307     0.233528958    15.106909975
     40      0   1 -0.550000     5.276237923     0.359012369    19.163341031
     41      0   1 -0.550000     1.280957950     4.180776285    19.016793275
     42      0   1 -0.550000     6.805396140     4.162674428    22.897157175
     43      0   1 -0.550000     4.295205382     4.142377399    15.070824787
     44      0   1 -0.550000     4.365152197     3.404543795    23.343307129
     45      0   1 -0.550000     1.888248267     3.395964745    15.520549739
     46      0   1 -0.550000     7.187886690     3.417588024    19.459236471
     47      0   1 -0.550000     2.208035841     0.864990246    20.326242065
     48      0   1 -0.550000     8.177166062     0.928290619    12.610504006
     49      0   1 -0.550000     5.244185931     1.151181687    16.685660683
     50      0   1 -0.550000     2.030379726     2.800878668    22.205894178
     51      0   1 -0.550000     4.740597917     2.873455516    18.531502431
     52      0   1 -0.550000     0.437149367     1.748361076    18.495612947
     53      0   1 -0.550000     6.120881339     1.780027893    22.395808877
     54      0   1 -0.550000     3.635262912     1.691582818    14.741382503
     55      0   1 -0.550000     6.048329528     0.957795524    14.202323314
     56      0   1 -0.550000     0.165306447     0.946983884    21.886723471
     57      0   1 -0.550000     2.966305447     1.086416826    17.933474196
     58      0   1 -0.550000    -0.278984587     3.573204126    16.991372349
     59      0   1 -0.550000     5.175106785     3.662102371    20.960876719
     60      0   1 -0.550000     2.672359866     3.535538004    13.054507024
     61      0   3  1.100000     7.661625715     1.177408384    14.120076097
     62      0   3  1.100000     1.759538804     1.276770076    21.803955990
     63      0   3  1.100000     4.588749964     1.352903684    18.064028442
     64      0   3  1.100000     0.058699644     3.251021006    18.500945409
     65      0   3  1.100000     5.638561152     3.213145967    22.415898617
     66      0   3  1.100000     3.133445061     3.194870534    14.598539569
     67      0   3  1.100000     2.754627176     3.672809033    23.334463613
     68      0   3  1.100000     0.329674895     3.836516715    15.468406129
     69      0   3  1.100000     5.630248649     3.833413124    19.447077606
     70      0   3  1.100000     1.722177318     0.771977093    18.816928652
     71      0   3  1.100000     7.308984154     0.791367782    22.916078501
     72      0   3  1.100000     4.869976042     0.770616543    15.182329820
     73      0   2 -0.675000     7.850634157     1.236557470    24.388459965
     74      0   2 -0.675000     2.249604325     3.291651443    24.819069824
     75      0   2 -0.900000     7.527572927     6.000004600    24.627854950
     76      0   2 -0.675000     2.323891472     8.713936114    25.057554104
     77      0   2 -0.675000     7.673978051    10.932737769    24.644693283
     78      0   2 -0.675000     2.320819806    13.909703318    24.823361758
     79      0   2 -0.675000     7.516955928    15.839906327    24.647163809
     80      0   2 -0.675000     2.345560298    18.694424496    25.228094063
     81      0   2 -0.900000     7.497357765    20.997206046    24.657956619
     82      0   2 -0.675000     2.243393331    23.686299735    24.998583122
     83      0   2 -0.675000     7.584934569    25.859838173    24.380658914
     84      0   2 -0.675000     2.344325463    28.743791088    24.942603898
     85      0   2 -0.900000     7.610041233    30.723448358    24.696512334
     86      0   2 -0.675000     2.213077671    33.638544761    25.014902160
     87      0   2 -0.675000    15.998715732     0.964770809    24.481890432
     88      0   2 -0.675000    10.339157084     3.256635741    24.763024719
     89      0   2 -0.675000    15.974641912     5.783356054    24.725771118
     90      0   2 -0.675000    10.485695542     8.767191911    24.953981884
     91      0   2 -0.900000    16.056109215    11.095677349    24.593784936
     92      0   2 -0.675000    10.840406771    13.674327208    25.164377731
     93      0   2 -0.675000    15.712848822    15.867528913    24.665693727
     94      0   2 -0.675000    10.577479344    18.439690957    25.200592743
     95      0   2 -0.675000    15.995577399    20.805631523    24.692156456
     96      0   2 -0.675000    10.458151048    23.427036314    24.907884766
     97      0   2 -0.900000    15.739859978    25.717230962    24.502695172
     98      0   2 -0.675000    10.591167013    28.405355689    25.215871254
     99      0   2 -0.675000    15.732347482    31.010860031    24.604707570
    100      0   2 -0.675000    10.642116665    33.435567192    25.094288411
    101      0   2 -0.675000    23.885537057     1.322631717    24.567583792
    102      0   2 -0.675000    19.070588490     3.328759418    24.935192319
    103      0   2 -0.675000    24.200617379     6.113908269    24.673626539
    104      0   2 -0.675000    18.785123573     8.522781502    25.161062382
    105      0   2 -0.900000    23.973146697    11.339459971    24.573435549
    106      0   2 -0.675000    18.652975277    13.519407491    24.820110351
    107      0   2 -0.675000    24.547783525    16.021122379    24.430071382
    108      0   2 -0.675000    18.958939857    18.485168027    24.993837773
    109      0   2 -0.675000    24.551121859    21.264840892    24.459200342
    110      0   2 -0.675000    18.877974050    23.539099240    24.961718991
    111      0   2 -0.675000    24.180451301    26.057479561    24.509261928
    112      0   2 -0.675000    18.672907771    28.536593632    24.955152235
    113      0   2 -0.675000    24.036483261    31.020136505    24.476298323
    114      0   2 -0.900000    18.940243193    33.311234375    25.304228907
    115      0   2 -0.900000    27.236065226     3.493233124    25.093247883
    116      0   2 -0.675000    27.347680526     8.240706010    24.895855724
    117      0   2 -0.675000    27.468276991    14.061309489    25.079205605
    118      0   2 -0.675000    27.555686131    18.736030912    24.887858969
    119      0   2 -0.900000    27.291188542    23.426080604    24.937922493
    120      0   2 -0.675000    27.136302755    28.822226925    24.964838636
    121      0   2 -0.675000    27.525369974    33.667282602    25.030376375
    122      0   2 -0.675000    32.739849693     1.056424452    24.376173213
    123      0   2 -0.675000    32.678515881     5.970987165    24.664263728
    124      0   2 -0.900000    32.710635534    10.998513947    24.478509202
    125      0   2 -0.675000    32.692205540    16.126621615    24.283913097
    126      0   2 -0.675000    32.509607098    20.876151436    24.732467698
    127      0   2 -0.675000    32.900812145    25.963872921    24.425975152
    128      0   2 -0.675000    32.650470885    31.176972840    24.480200786
    129      0   4  0.400000    32.543835276    25.321897600    25.012507387
    130      0   4  0.400000    27.401909287    32.768748112    25.267254897
    131      0   4  0.400000    10.556741832    34.321542340    25.433223440
    132      0   4  0.400000    31.889870392    31.163887467    25.023100137
    133      0   4  0.400000    15.389383914    30.346310653    25.180319672
    134      0   4  0.400000    27.445725837    28.021274723    25.345244139
    135      0   4  0.400000     9.904726586    27.786743091    25.055171035
    136      0   4  0.400000     7.303875165    26.741644461    24.578559777
    137      0   4  0.400000    24.447040709    30.282088761    24.902270345
    138      0   4  0.400000    24.905900636    25.486626331    24.678737747
    139      0   4  0.400000    28.166532537    19.397073192    25.194306875
    140      0   4  0.400000    24.678916571    15.204467008    24.876006867
    141      0   4  0.400000    26.409518878     8.202631308    24.847670370
    142      0   4  0.400000    24.370987509     0.608087749    24.981614552
    143      0   4  0.400000    15.331918191    21.393095360    25.032343050
    144      0   4  0.400000    32.782440343    15.330804488    24.772225267
    145      0   4  0.400000    32.059224258     6.604784266    24.990532625
    146      0   4  0.400000     2.112467034    24.588928968    25.253619634
    147      0   4  0.400000     3.045354355    14.275117831    25.303015389
    148      0   4  0.400000    18.032286299     9.077801403    25.252040203
    149      0   4  0.400000    19.280265736    13.865025058    25.435145083
    150      0   4  0.400000     9.908197403    19.091770195    25.334542221
    151      0   4  0.400000    10.204367968     9.644704607    25.076332543
    152      0   4  0.400000     7.168209435     1.808878705    24.710764982
    153      0   4  0.400000    15.754129696     4.983076891    25.152165129
    154      0   4  0.400000    18.569746437    22.634196663    25.207524989
    155      0   4  0.400000     7.420947698    10.185426997    25.157270034
    156      0   4  0.400000     2.970960921     3.416769112    25.368915988
    157      0   4  0.400000     2.481947376    34.437610646    25.426701407
    158      0   4  0.400000     9.820873496    24.111362170    24.991296396
    159      0   4  0.400000    18.229035098    29.358036167    25.114975757
    160      0   4  0.400000    23.834420619    21.681862797    24.905333305
    161      0   4  0.400000    19.038427762    19.311064508    25.426751333
    162      0   4  0.400000     8.070956833    15.131451069    24.925472294
    163      0   4  0.400000     9.681608792     2.585950834    24.545213579
    164      0   4  0.400000     2.090711646     7.822856125    25.168314812
    165      0   4  0.400000    24.897467512     6.765575579    24.771146965
    166      0   4  0.400000    18.601585303     4.074000680    25.268527034
    167      0   4  0.400000    28.042034772    14.716853379    25.424016278
    168      0   4  0.400000     2.340706261    17.780602071    25.443026960
    169      0   4  0.400000    11.325447308    14.413921176    25.509570972
    170      0   4  0.400000    16.652918328    15.908941378    24.789852250
    171      0   4  0.400000    32.199212818    21.743601239    24.912606451
    172      0   4  0.400000     2.471039330    29.606053043    25.286211793
    173      0   4  0.400000    16.688813048     0.354205867    24.684882730
    174      0   4  0.400000    32.612129288     0.292658365    24.910400528
    175      0   1 -0.550000     2.988674776     5.350476793    11.104767528
    176      0   1 -0.550000     8.905086177     5.463891954     3.193281421
    177      0   1 -0.550000     5.918985234     5.283584320     7.189162779
    178      0   1 -0.550000     1.955124412     9.181168991     6.933774769
    179      0   1 -0.550000     7.285212824     9.223297176    10.994497758
    180      0   1 -0.550000     4.875984050     9.108069335     2.982859173
    181      0   1 -0.550000     4.850777882     8.516050471    11.568080375
    182      0   1 -0.550000     2.417543945     8.489928752     3.434248581
    183      0   1 -0.550000     7.693677707     8.497009014     7.657027693
    184      0   1 -0.550000     2.891750635     6.074359828     8.585735411
    185      0   2 -0.675000     8.600289766     6.338647356     0.618844842
    186      0   1 -0.550000     5.761362112     6.061176321     4.720200484
    187      0   1 -0.550000     2.581444728     7.928881359    10.441004882
    188      0   1 -0.550000     5.436931716     7.807897427     6.648803415
    189      0   1 -0.550000     1.239289963     6.765040880     6.650623854
    190      0   1 -0.550000     6.459164579     6.645904967    10.825062271
    191      0   1 -0.550000     4.076548947     6.678373147     2.809841421
    192      0   1 -0.550000     6.504707223     5.865417252     2.229210538
    193      0   1 -0.550000     0.694268789     6.033414458    10.084840221
    194      0   1 -0.550000     3.629953418     6.033031966     6.141492913
    195      0   1 -0.550000     0.326936566     8.448600890     4.873141089
    196      0   1 -0.550000     5.573621341     8.337765473     9.138122849
    197      0   2 -0.900000     3.395171484     8.506111912     0.911068523
    198      0   3  1.100000     8.026920112     6.381683960     2.214009534
    199      0   3  1.100000     2.276781651     6.373768035    10.028665293
    200      0   3  1.100000     5.222717107     6.294949706     6.187505742
    201      0   3  1.100000     0.725285947     8.277745386     6.446222666
    202      0   3  1.100000     6.109227516     8.227175350    10.614275983
    203      0   3  0.725000     3.686679235     8.194669753     2.507822950
    204      0   3  1.100000     3.313872342     8.787944189    11.556442742
    205      0   3  1.100000     0.820608085     8.746021801     3.400348598
    206      0   3  1.100000     6.074504857     8.751183367     7.723475167
    207      0   3  1.100000     2.411501112     5.709836489     7.089101128
    208      0   3  1.100000     7.686865714     5.690235844    11.099760594
    209      0   3  1.100000     5.268691596     5.690969647     3.240945628
    210      0   4  0.400000     8.402734135     7.168084949     0.209873151
    211      0   1 -0.550000     2.450597935     5.240163145    23.126214702
    212      0   1 -0.550000     8.366407342     5.213448979    15.116532434
    213      0   1 -0.550000     5.530552348     5.349011266    18.904181834
    214      0   1 -0.550000     1.317217935     9.232713966    18.968159750
    215      0   1 -0.550000     6.753244488     9.042501033    22.906975338
    216      0   1 -0.550000     4.532257981     9.128994151    14.914783428
    217      0   1 -0.550000     4.324152872     8.403017803    23.426919434
    218      0   1 -0.550000     2.009912899     8.602229696    15.509887722
    219      0   1 -0.550000     7.225815345     8.359528029    19.418403997
    220      0   1 -0.550000     2.286864317     5.927252098    20.700287524
    221      0   1 -0.550000     8.216830053     5.862627553    12.590673913
    222      0   1 -0.550000     5.260311431     6.126150097    16.530658883
    223      0   1 -0.550000     1.869884940     7.724927811    22.760036174
    224      0   1 -0.550000     4.826604559     7.835763228    18.460374520
    225      0   1 -0.550000     0.673735295     6.712448209    18.669859664
    226      0   1 -0.550000     5.982255380     6.569317150    22.649246140
    227      0   1 -0.550000     3.632858914     6.592892386    14.642166160
    228      0   1 -0.550000     6.086658186     5.746665910    14.076254770
    229      0   1 -0.550000     0.121735957     5.824997809    22.201472420
    230      0   1 -0.550000     3.100290573     5.870928049    18.165130136
    231      0   1 -0.550000    -0.193778946     8.570807134    17.044166046
    232      0   1 -0.550000     5.089699152     8.472909930    20.939810395
    233      0   1 -0.550000     2.746247011     8.421154999    13.019982628
    234      0   3  1.100000     7.621860231     6.166640218    14.050832568
    235      0   3  1.100000     1.699374155     6.236810898    22.191654257
    236      0   3  1.100000     4.679564604     6.325359911    17.975345261
    237      0   3  1.100000     0.202934602     8.273907992    18.517783742
    238      0   3  1.100000     5.536962348     8.117036318    22.453935036
    239      0   3  1.100000     3.260819191     8.182220049    14.519673582
    240      0   3  1.100000     2.721807019     8.788222743    23.498047344
    241      0   3  1.100000     0.376684218     8.877120988    15.547857292
    242      0   3  1.100000     5.639462652     8.719970759    19.507608411
    243      0   3  1.100000     1.825379119     5.682215982    19.172378313
    244      0   3  0.725000     7.190356362     5.638898745    23.022446776
    245      0   3  1.100000     4.843163893     5.637050726    15.069524612
    246      0   1 -0.550000     3.027905928    10.290498101    11.190135359
    247      0   1 -0.550000     8.971860828    10.459087755     3.100098491
    248      0   1 -0.550000     5.760526284    10.255554117     7.429856970
    249      0   1 -0.550000     1.930751087    14.170540102     6.956595652
    250      0   1 -0.550000     7.234830341    14.174899265    10.830589468
    251      0   1 -0.550000     4.921025197    14.160634802     3.045522866
    252      0   1 -0.550000     4.803800401    13.432706498    11.460932189
    253      0   1 -0.550000     2.422252440    13.751507473     3.524850295
    254      0   1 -0.550000     7.921615807    13.635371213     7.474458692
    255      0   1 -0.550000     2.819232656    10.859567436     8.677344471
    256      0   2 -0.675000     8.678849584    11.227576858     0.620318135
    257      0   1 -0.550000     5.739525125    10.709846702     4.816621257
    258      0   1 -0.550000     2.476607093    12.800546745    10.396728203
    259      0   1 -0.550000     5.590950830    12.788446273     6.433479109
    260      0   1 -0.550000     1.154819651    11.718663526     6.689439216
    261      0   1 -0.550000     6.486677232    11.698017264    10.590999748
    262      0   1 -0.550000     4.032576465    11.685671499     3.148965505
    263      0   1 -0.550000     6.603633369    11.155383543     2.292088828
    264      0   1 -0.550000     0.665121298    11.000465905    10.161950681
    265      0   1 -0.550000     3.612024920    11.087933961     6.242003134
    266      0   1 -0.550000     0.236321927    13.572314056     4.904407782
    267      0   1 -0.550000     5.673116646    13.445505434     8.906336117
    268      0   2 -0.675000     3.182991717    13.339378412     1.174070236
    269      0   3  1.100000     8.168485397    11.492284296     2.189979062
    270      0   3  1.100000     2.246298826    11.276577429    10.093551975
    271      0   3  1.100000     5.141450800    11.245190206     6.219682654
    272      0   3  1.100000     0.698074789    13.251353247     6.511227062
    273      0   3  1.100000     6.034339369    13.226485021    10.454984186
    274      0   3  1.100000     3.662173570    13.187495766     2.758159219
    275      0   3  1.100000     3.195879380    13.788754725    11.463597451
    276      0   3  1.100000     0.871090071    13.851146679     3.466113528
    277      0   3  1.100000     6.331790449    13.775328003     7.442665439
    278      0   3  1.100000     2.377011290    10.716717009     7.108346045
    279      0   3  1.100000     7.733108861    10.741233925    10.978113808
    280      0   3  1.100000     5.345484235    10.658228970     3.297504214
    281      0   4  0.400000     3.392065616    12.502396236     0.779529550
    282      0   1 -0.550000     2.629823216    10.270340349    22.902098228
    283      0   1 -0.550000     8.547670449    10.232116078    15.008018191
    284      0   1 -0.550000     5.367954063    10.284326258    19.114903210
    285      0   1 -0.550000     1.313311437    14.360821634    19.017638098
    286      0   1 -0.550000     6.799686642    14.034977814    22.991628170
    287      0   1 -0.550000     4.281382389    14.045789454    14.826945070
    288      0   1 -0.550000     4.300914880    13.279426924    23.360666695
    289      0   1 -0.550000     1.848617112    13.379242825    15.413856904
    290      0   1 -0.550000     7.241039345    13.358386609    19.481730857
    291      0   1 -0.550000     2.320252638    11.286412051    20.422662353
    292      0   1 -0.550000     8.247914873    11.034085718    12.455697910
    293      0   1 -0.550000     5.281213086    11.069798844    16.560958195
    294      0   1 -0.550000     1.877831270    12.825972080    22.521487950
    295      0   1 -0.550000     4.890575208    12.717787084    18.515443040
    296      0   1 -0.550000     0.725552615    11.829708898    18.375006689
    297      0   1 -0.550000     6.051834033    11.538565847    22.574281647
    298      0   1 -0.550000     3.688782734    11.624046608    14.526694721
    299      0   1 -0.550000     6.220442316    10.950035146    14.063706433
    300      0   1 -0.550000     0.284267575    10.844118079    22.035092634
    301      0   1 -0.550000     3.175713053    10.869158842    18.051545985
    302      0   1 -0.550000    -0.204529279    13.852019759    16.952816635
    303      0   1 -0.550000     5.155140460    13.516268561    20.957235841
    304      0   1 -0.550000     2.631860048    13.564013560    12.965108844
    305      0   3  1.100000     7.796345176    11.206373489    13.977298074
    306      0   3  1.100000     1.786615632    11.255756552    21.973780949
    307      0   3  1.100000     4.713353923    11.224230052    18.075080899
    308      0   3  1.100000     0.182201106    13.352457980    18.446589951
    309      0   3  1.100000     5.573054173    13.067104281    22.453349861
    310      0   3  1.100000     3.098588072    13.131554209    14.443278121
    311      0   3  1.100000     2.782873168    13.853657824    23.318535984
    312      0   3  1.100000     0.306469739    13.894044006    15.422829275
    313      0   3  1.100000     5.656189151    13.727512327    19.511704641
    314      0   3  1.100000     1.854827111    10.796373080    18.955545533
    315      0   3  1.100000     7.254128004    10.570760913    23.028492300
    316      0   3  1.100000     4.940858188    10.666460866    15.044168291
    317      0   1 -0.550000     3.001462935    15.332463962    10.986501003
    318      0   1 -0.550000     9.140168611    15.389623673     3.113335911
    319      0   1 -0.550000     6.033338366    15.230207595     6.967583681
    320      0   1 -0.550000     1.873958603    19.130721241     7.005878779
    321      0   1 -0.550000     7.179707522    19.125279043    11.004185129
    322      0   1 -0.550000     4.850477383    19.079941250     2.976857973
    323      0   1 -0.550000     4.740964089    18.142933171    11.375044093
    324      0   1 -0.550000     2.398112948    18.281634388     3.345096726
    325      0   1 -0.550000     7.810803000    18.381134318     7.473483561
    326      0   1 -0.550000     2.851351315    16.189641355     8.416560540
    327      0   2 -0.900000     8.829328371    15.962705018     0.502728402
    328      0   1 -0.550000     5.730211619    16.128120402     4.499239017
    329      0   1 -0.550000     2.430899273    17.786988881    10.354207051
    330      0   1 -0.550000     5.339440407    17.713018224     6.466917443
    331      0   1 -0.550000     1.221995300    16.700956453     6.414975350
    332      0   1 -0.550000     6.611346862    16.634099319    10.562067461
    333      0   1 -0.550000     4.236876568    16.611605038     2.452265654
    334      0   1 -0.550000     6.719956666    15.781769598     2.148823239
    335      0   1 -0.550000     0.626123978    15.956741050     9.902986220
    336      0   1 -0.550000     3.627516583    15.832165018     6.000626400
    337      0   1 -0.550000     0.320926568    18.740250798     4.942520739
    338      0   1 -0.550000     5.683602300    18.491551904     8.974083766
    339      0   2 -0.675000     3.287729849    18.597015801     0.913890252
    340      0   3  0.725000     8.297328195    16.230445369     2.033723106
    341      0   3  1.100000     2.238586328    16.254091284     9.908902889
    342      0   3  1.100000     5.184020287    16.221169934     5.980138953
    343      0   3  1.100000     0.700178288    18.203373167     6.431086574
    344      0   3  1.100000     6.107058345    18.108126384    10.467986906
    345      0   3  1.100000     3.680368738    18.139723562     2.439470265
    346      0   3  1.100000     3.271335691    18.682775115    11.399946032
    347      0   3  1.100000     0.878335899    18.781404044     3.428358071
    348      0   3  1.100000     6.211094979    18.715000079     7.476214219
    349      0   3  1.100000     2.360684794    15.716760483     6.965632934
    350      0   3  1.100000     7.822353339    15.690185593    10.952691606
    351      0   3  1.100000     5.412326549    15.692312166     3.048728253
    352      0   4  0.400000     2.460901047    18.189522792     0.710396118
    353      0   1 -0.550000     2.732123518    15.309585111    22.683575801
    354      0   1 -0.550000     8.378359674    15.289427359    15.139028757
    355      0   1 -0.550000     5.349824568    15.270943009    19.047871529
    356      0   1 -0.550000     1.280957950    19.233813271    18.924013864
    357      0   1 -0.550000     6.694181340    19.121200512    22.858407694
    358      0   1 -0.550000     4.551756641    19.087684637    14.671683623
    359      0   1 -0.550000     4.283284891    18.403803214    23.415735215
    360      0   1 -0.550000     2.050245553    18.616127936    15.422503747
    361      0   1 -0.550000     7.407444625    18.600957133    19.443566552
    362      0   1 -0.550000     2.161960854    16.423344062    20.474285699
    363      0   1 -0.550000     8.142208575    15.944010714    12.522925295
    364      0   1 -0.550000     5.235738104    15.808309149    16.554521262
    365      0   1 -0.550000     1.746851143    17.802159684    22.739555025
    366      0   1 -0.550000     5.148362297    17.777678107    18.311613948
    367      0   1 -0.550000     0.552170166    16.766558015    18.500294353
    368      0   1 -0.550000     5.937114729    16.550256623    22.714913703
    369      0   1 -0.550000     3.592927258    16.672498205    14.683646784
    370      0   1 -0.550000     5.951805391    15.950498529    13.986725797
    371      0   1 -0.550000     0.258057420    15.850194119    21.888998293
    372      0   1 -0.550000     3.044199588    16.180330582    17.978986138
    373      0   1 -0.550000    -0.222291606    18.587773626    16.808347997
    374      0   1 -0.550000     5.174537626    18.291155117    20.888576520
    375      0   1 -0.550000     2.718802020    18.483145391    12.891704174
    376      0   3  1.100000     7.566805074    16.202579568    14.016698612
    377      0   3  1.100000     1.740673980    16.361719171    22.016628598