LAMMPS 2005 data file for silica_Q3_Q4_2_4OH_n

   2100 atoms
   2744 bonds
   5404 angles
   8064 dihedrals
   2688 impropers

   4 atom types
   3 bond types
   4 angle types
   3 dihedral types
   2 improper types

     0.000000000    33.367500000 xlo xhi
     0.000000000    34.842000000 ylo yhi
     0.000000000    66.858400000 zlo zhi

Masses

   1  15.999400
   2  15.999400
   3  28.086000
   4   1.008000

Pair Coeffs

   1   0.0400000000   3.6000000000 
   2   0.1200000000   3.6000000000 
   3   0.0800000000   4.2000000000 
   4   0.0130000000   1.0980000000 

Bond Coeffs

  1     1.6800   285.0000     0.0000     0.0000 
  2     1.6800   285.0000     0.0000     0.0000 
  3     0.9450   495.0000     0.0000     0.0000 

Angle Coeffs

  1   149.0000   100.0000     0.0000     0.0000 
  2   115.0000    50.0000     0.0000     0.0000 
  3   109.5000   100.0000     0.0000     0.0000 
  4   109.5000   100.0000     0.0000     0.0000 

Atoms

      1      0   1 -0.550000     3.554940201    -0.060798788    10.881271733
      2      0   1 -0.550000     9.249171130     0.020862309     3.682400294
      3      0   1 -0.550000     6.560751243    -0.173931550     7.181327412
      4      0   1 -0.550000     1.851989626     5.004217247     6.396082585
      5      0   1 -0.550000     7.443855401     3.766664115    11.347140501
      6      0   1 -0.550000     5.017070777     4.186370911     2.778501467
      7      0   1 -0.550000     4.948666990     2.992230835    11.699952801
      8      0   1 -0.550000     2.499492797     3.773562802     2.860830796
      9      0   1 -0.550000     8.126421020     2.826888183     8.000075729
     10      0   1 -0.550000     2.953771081     1.261583539     8.562020081
     11      0   1 -0.550000    10.067441998     2.191857972     2.048695207
     12      0   1 -0.550000     6.104216848     0.517131936     4.613049160
     13      0   1 -0.550000     2.627243609     2.408784375    10.918712473
     14      0   1 -0.550000     5.965274732     2.385847764     6.599298301
     15      0   1 -0.550000     2.424222229     2.374628668     6.198040986
     16      0   1 -0.550000     6.830327021     1.326142273    10.821165900
     17      0   1 -0.550000     4.326196704     1.661813582     2.884578831
     18      0   1 -0.550000     7.165971169     1.203090717     2.393958536
     19      0   1 -0.550000     1.189931743     0.439584102    10.274063448
     20      0   1 -0.550000     4.148914876     0.517922851     6.338202913
     21      0   1 -0.550000     0.540336604     3.460012722     4.562564286
     22      0   1 -0.550000     5.946021592     3.229389926     9.227997206
     23      0   2 -0.675000     3.793550952     3.009470675     0.746340320
     24      0   3  1.100000     8.787130581     1.374011636     2.870030582
     25      0   3  1.100000     2.637323887     0.975569021    10.113670310
     26      0   3  1.100000     5.724661699     0.848907887     6.207053722
     27      0   3  1.100000     1.210289321     3.483642446     6.075964308
     28      0   3  1.100000     6.273890798     2.836612542    10.812541210
     29      0   3  1.100000     3.896222762     3.193175127     2.327160275
     30      0   3  1.100000     3.514031630     3.506011067    11.732111329
     31      0   3  1.100000     0.808484506     3.648340787     3.017807731
     32      0   3  1.100000     6.616708757     3.272653198     7.725755384
     33      0   3  1.100000     2.760776777     1.009891905     6.953407243
     34      0   3  1.100000     8.068628785     0.395056028    11.302746808
     35      0   3  1.100000     5.687390500     0.654500021     3.100143785
     36      0   4  0.400000     4.461802014     3.532978899     0.287885590
     37      0   1 -0.550000     2.515732568    -0.486533596    23.190304806
     38      0   1 -0.550000     8.695870838     0.002441027    15.280487452
     39      0   1 -0.550000     6.057802869    -0.102364839    18.990928450
     40      0   1 -0.550000     1.531334630     3.772656822    19.004099111
     41      0   1 -0.550000     6.780209291     4.237135645    23.642267669
     42      0   1 -0.550000     4.698277228     4.198112568    15.165958499
     43      0   1 -0.550000     4.045642430     3.703913706    23.682381395
     44      0   1 -0.550000     2.311827141     3.512213006    15.730043332
     45      0   1 -0.550000     7.510223592     2.980252170    19.884891498
     46      0   1 -0.550000     2.351704738     0.963144375    20.834213163
     47      0   1 -0.550000     8.536874570     0.785815984    12.798770426
     48      0   1 -0.550000     5.420450456     1.121522143    16.738468584
     49      0   1 -0.550000     2.132216608     2.014181142    23.231755523
     50      0   1 -0.550000     5.061082215     2.323818505    19.151321588
     51      0   1 -0.550000     1.259850046     1.328041197    18.505869571
     52      0   1 -0.550000     6.017895439     1.838110675    23.064007937
     53      0   1 -0.550000     4.003666339     1.642019866    14.738132216
     54      0   1 -0.550000     6.424845616     0.870269546    14.253207833
     55      0   1 -0.550000     0.265286961     0.723570808    22.482942715
     56      0   1 -0.550000     3.649870630     0.288775388    18.511486529
     57      0   1 -0.550000     0.063562751     3.157099730    16.993198319
     58      0   1 -0.550000     5.429693177     3.597506223    21.383254353
     59      0   1 -0.550000     3.064477878     3.676771687    13.250265043
     60      0   3  1.100000     8.021880678     1.029128146    14.282425378
     61      0   3  1.100000     1.781774486     0.744326187    22.363398550
     62      0   3  1.100000     5.049570705     0.938587708    18.332172273
     63      0   3  1.100000     0.459457115     2.683715564    18.489957182
     64      0   3  1.100000     5.526192069     3.369810340    22.969270840
     65      0   3  1.100000     3.549234167     3.243389524    14.731914509
     66      0   3  1.100000     2.456488715     3.591478470    23.338396028
     67      0   3  1.100000     0.696686697     3.582628681    15.590977300
     68      0   3  1.100000     6.002979999     3.411728659    19.906486599
     69      0   3  1.100000     2.225148484     0.382547727    19.300215802
     70      0   3  1.100000     7.233273129     0.843639769    23.467165633
     71      0   3  1.100000     5.117006416     0.628518318    15.201594002
     72      0   2 -0.675000     7.735454301     1.297941114    25.003035977
     73      0   2 -0.675000     8.143872254     5.963974581    24.907226896
     74      0   2 -0.675000     2.438046532     8.474933253    24.301623599
     75      0   1 -0.550000    10.145255072     9.412880091    24.102118980
     76      0   1 -0.550000     2.047426496    11.793772742    24.258566897
     77      0   2 -0.675000     3.112670641    17.845131561    25.004239469
     78      0   2 -0.675000     7.983775153    21.240624228    25.228415663
     79      0   1 -0.550000     1.454025483    21.815726846    24.023226526
     80      0   2 -0.675000     8.221418325    26.094149741    24.857618737
     81      0   2 -0.675000     2.938925997    29.095160535    24.636519018
     82      0   1 -0.550000     9.641071618    31.669948485    23.832078602
     83      0   1 -0.550000     1.494673762    31.877294863    23.947008054
     84      0   2 -0.675000    16.373132149     0.016174214    24.718017709
     85      0   2 -0.675000    11.423864026     2.705620551    25.233831375
     86      0   1 -0.550000    18.108575816     4.421345526    24.028239745
     87      0   2 -0.675000    16.609107165    11.313650057    24.527136784
     88      0   2 -0.675000    11.129629393    13.182958375    24.764619131
     89      0   2 -0.675000    16.706973895    15.796038388    24.707654531
     90      0   1 -0.550000     9.996903172    16.383823689    23.904953598
     91      0   2 -0.675000    11.691637899    23.095298761    25.299017177
     92      0   2 -0.675000    12.844285516    28.203414524    24.548867377
     93      0   2 -0.675000    16.042326395    29.647406497    24.834953645
     94      0   1 -0.550000    26.489390666     1.939528648    24.092558794
     95      0   2 -0.675000    23.407802394     6.720046319    24.844246831
     96      0   1 -0.550000    22.653663246     9.089860054    23.521787012
     97      0   2 -0.675000    19.540575442    13.280655730    24.960581022
     98      0   2 -0.675000    24.619176016    15.914571726    24.945270378
     99      0   1 -0.550000    18.221457428    19.307799702    23.861295151
    100      0   1 -0.550000    26.665671105    19.540021332    23.936108885
    101      0   2 -0.675000    20.211429173    23.484796446    24.360861682
    102      0   2 -0.675000    25.249888626    24.683744965    25.181280241
    103      0   1 -0.550000    18.430872241    26.624583650    23.933100156
    104      0   2 -0.675000    20.027740239    32.685767551    24.935375446
    105      0   2 -0.675000    28.416430967     8.175640547    25.444703409
    106      0   2 -0.675000    28.369048414    13.657158182    25.432467248
    107      0   2 -0.675000    27.860226943    22.361281536    24.792030443
    108      0   1 -0.550000    26.566936239    29.311773349    23.919997242
    109      0   2 -0.675000    28.137577166    33.057428072    24.665667821
    110      0   2 -0.675000    33.237066716     0.514881133    25.141499268
    111      0   1 -0.550000     1.174616045     4.480437229    24.027705746
    112      0   2 -0.675000    33.070462071    15.250796248    24.834686645
    113      0   2 -0.675000    33.027351585    25.473753313    24.764684885
    114      0   4  0.400000    32.947536726    26.264667122    25.263649670
    115      0   4  0.400000    27.239492433    32.921438654    24.798850893
    116      0   4  0.400000    15.208672704    29.954922595    25.254356484
    117      0   4  0.400000    13.000879244    27.353305175    24.967066725
    118      0   4  0.400000     8.755565416    25.461662503    25.320947024
    119      0   4  0.400000    24.420606446    24.509499827    25.645678519
    120      0   4  0.400000    24.467352564    16.865270298    25.046626679
    121      0   4  0.400000    29.115045178     8.074668165    26.068624086
    122      0   4  0.400000    32.936192280    15.840531612    25.501933016
    123      0   4  0.400000    20.213264889    12.896488011    25.454530595
    124      0   4  0.400000     7.215088006     1.986607160    25.314796066
    125      0   4  0.400000    19.738411123    24.265328606    24.284107218
    126      0   4  0.400000    12.037359094    22.502741101    25.929961542
    127      0   4  0.400000    10.892319853     3.410265333    25.509622211
    128      0   4  0.400000     3.006224973     8.628133696    25.082797177
    129      0   4  0.400000    23.847419563     6.323997023    25.576882243
    130      0   4  0.400000    28.135075183    12.869101974    25.856817553
    131      0   4  0.400000     3.882375338    17.760988083    25.624083418
    132      0   4  0.400000    11.706319649    12.703427563    25.298281931
    133      0   4  0.400000    17.191903215    15.097387093    25.211032783
    134      0   4  0.400000     3.449231902    28.957395499    25.431198003
    135      0   4  0.400000    16.014498294     0.729079309    25.132540828
    136      0   4  0.400000    32.530409563     0.719783474    25.720894745
    137      0   4  0.400000     7.898454140     6.832690527    25.041212959
    138      0   4  0.400000     8.860005321    21.118154420    25.506278736
    139      0   4  0.400000    17.423640970    11.751335495    24.321548955
    140      0   4  0.400000    20.603629979    32.199757294    25.490366347
    141      0   4  0.400000    27.528288534    23.168815536    25.092225856
    142      0   1 -0.550000     3.484167684     4.912094914    11.016392545
    143      0   1 -0.550000     9.279401771     4.963695798     3.698673581
    144      0   1 -0.550000     6.446934867     4.764329833     7.068938442
    145      0   1 -0.550000     1.433284304    10.030384651     7.199780284
    146      0   1 -0.550000     7.864820066     8.766003088    10.862885610
    147      0   1 -0.550000     4.429068395     8.927112814     3.943408757
    148      0   1 -0.550000     5.323550809     8.394483266    11.459195722
    149      0   1 -0.550000     2.236613504     8.366260820     2.709697469
    150      0   1 -0.550000     8.357624766     8.008607944     7.615038151
    151      0   1 -0.550000     2.051774264     5.657922588     8.963638543
    152      0   2 -0.675000     8.074000690     5.017247784     1.348540616
    153      0   1 -0.550000     4.858841711     5.506812909     5.046505352
    154      0   1 -0.550000     2.982233628     7.508032955    10.569912143
    155      0   1 -0.550000     6.001211407     7.291768515     6.725687823
    156      0   1 -0.550000     2.306448275     7.580574179     7.245912963
    157      0   1 -0.550000     7.054590150     6.381103358    11.513417597
    158      0   1 -0.550000     4.211178561     6.690500467     2.761358936
    159      0   1 -0.550000     6.803199495     6.035122308     3.481350215
    160      0   1 -0.550000     1.072554939     5.971953435    11.396816406
    161      0   1 -0.550000     4.129761925     5.778441295     7.517892576
    162      0   1 -0.550000     1.590028067     8.837429618     5.040568593
    163      0   1 -0.550000     6.402689241     7.386399556     9.257013506
    164      0   2 -0.675000     4.309278981     8.831193153     1.243011323
    165      0   3  1.100000     8.257721944     5.799973506     2.751323530
    166      0   3  1.100000     2.412546887     6.012649331    10.510876303
    167      0   3  1.100000     5.332359959     5.809276286     6.543946659
    168      0   3  1.100000     1.290831730     8.556568024     6.555693652
    169      0   3  1.100000     6.656182119     7.698165713    10.728566794
    170      0   3  1.100000     3.791815922     8.239227365     2.689853807
    171      0   3  1.100000     3.716338761     8.596497081    11.477046848
    172      0   3  1.100000     0.963663410     8.588970957     3.571194641
    173      0   3  1.100000     6.764025954     8.074040988     7.896913195
    174      0   3  1.100000     2.568263031     6.004112870     7.494960484
    175      0   3  1.100000     8.073066424     5.237170930    11.554937057
    176      0   3  1.100000     5.268428119     5.636076788     3.458324224
    177      0   4  0.400000     8.943457802     4.750846046     1.118320439
    178      0   4  0.400000     5.058646362     8.396155565     0.956148652
    179      0   1 -0.550000     2.375525787     4.249434908    21.921264865
    180      0   1 -0.550000     8.494030591     5.006447152    15.583222351
    181      0   1 -0.550000     6.032243558     4.690813058    18.965320383
    182      0   1 -0.550000     1.756151532     8.745690445    18.854202651
    183      0   1 -0.550000     7.478624617     8.942304204    23.448645015
    184      0   1 -0.550000     4.724203981     9.107455276    15.074697380
    185      0   1 -0.550000     4.945530561     8.241004020    23.342741748
    186      0   1 -0.550000     2.215024699     8.447512431    15.434261387
    187      0   1 -0.550000     7.738189975     7.587089447    19.442088322
    188      0   1 -0.550000     2.267758772     6.019652115    20.113146413
    189      0   1 -0.550000     8.622495901     5.233373082    13.043672975
    190      0   1 -0.550000     5.438935897     6.153027431    16.778116057
    191      0   1 -0.550000     3.018203865     6.684646642    22.505673561
    192      0   1 -0.550000     5.188479508     7.150658363    19.110938869
    193      0   1 -0.550000     1.142960387     6.321175246    18.008644270
    194      0   1 -0.550000     6.917783570     6.636878391    22.623009997
    195      0   1 -0.550000     3.938733110     6.657679070    14.592848476
    196      0   1 -0.550000     6.475263663     6.045470209    14.315185652
    197      0   1 -0.550000     0.464912708     5.804816476    22.003566548
    198      0   1 -0.550000     3.523741483     5.150797546    18.113746537
    199      0   1 -0.550000     0.007817071     8.350581914    16.872853154
    200      0   1 -0.550000     6.119098975     8.666389935    21.113012728
    201      0   1 -0.550000     3.169275280     8.466536454    12.978819927
    202      0   3  1.100000     8.082776526     5.900144265    14.402302297
    203      0   3  1.100000     2.015223529     5.753041145    21.589445921
    204      0   3  1.100000     5.044865565     5.738442666    18.266717479
    205      0   3  1.100000     0.598502807     7.782169530    18.258293039
    206      0   3  1.100000     6.359411691     8.136477808    22.606964108
    207      0   3  1.100000     3.484234311     8.168254084    14.520641975
    208      0   3  1.100000     3.379126647     8.186859643    23.024294710
    209      0   3  1.100000     0.591282134     8.665100796    15.409257057
    210      0   3  1.100000     6.272589587     8.242641534    19.591984782
    211      0   3  1.100000     2.111745542     5.301140388    18.756321332
    212      0   3  1.100000     7.748334145     5.463086004    23.407527051
    213      0   3  1.100000     5.152175392     5.760950429    15.210018442
    214      0   1 -0.550000     3.316038828    10.103796550    11.065933953
    215      0   1 -0.550000     8.174437024     9.709036393     2.608413647
    216      0   1 -0.550000     6.198680641     9.536150485     8.005758440
    217      0   1 -0.550000     1.503703053    14.835304985     6.530133406
    218      0   1 -0.550000     7.372249056    13.877812342    11.728902351
    219      0   1 -0.550000     5.206364314    13.758896883     3.618456838
    220      0   1 -0.550000     4.935086571    12.712730342    11.686380645
    221      0   1 -0.550000     3.060673938    12.683951848     2.488596754
    222      0   1 -0.550000     8.188951710    12.936835014     7.913427330
    223      0   1 -0.550000     1.735063298    11.271770417     9.411924182
    224      0   1 -0.550000     5.862703359    11.548590146     2.231940735
    225      0   1 -0.550000     4.770384766    10.125468423     6.045135797
    226      0   1 -0.550000     2.378802431    12.571237549    11.456120243
    227      0   1 -0.550000     5.688591273    12.151321780     7.273324773
    228      0   1 -0.550000     2.354384227    12.421521885     7.142817179
    229      0   1 -0.550000     6.913579124    11.254349641    10.816351934
    230      0   1 -0.550000     4.342079227    11.499497970     4.026466856
    231      0   1 -0.550000     6.537193717    10.525349832     4.233908491
    232      0   1 -0.550000     0.805371322    10.461206447    11.661175070
    233      0   1 -0.550000     3.781839064    10.546360262     8.169561802
    234      0   1 -0.550000     1.543633976    12.685972521     4.767953360
    235      0   1 -0.550000     6.065577315    13.432844797     9.464007070
    236      0   3  1.100000     7.248488887    10.990177289     2.943160374
    237      0   3  1.100000     2.078998746    11.093239915    10.965780148
    238      0   3  1.100000     5.122211755    10.597961146     7.394940179
    239      0   3  1.100000     1.285699854    13.222503753     6.297900892
    240      0   3  1.100000     6.341593512    12.810079842    10.947528522
    241      0   3  1.100000     4.650061344    12.448349277     2.889265773
    242      0   3  1.100000     3.516534110    13.461137333    11.900594161
    243      0   3  1.100000     1.654894545    13.147663054     3.139797485
    244      0   3  1.100000     6.593584802    13.265742623     7.975806147
    245      0   3  1.100000     2.364424479    11.091288813     7.983628344
    246      0   3  1.100000     8.217814514    10.348387273    11.134464226
    247      0   3  1.100000     5.005825774    10.252118718     4.579372320
    248      0   1 -0.550000     3.144816802     9.326192600    21.882954383
    249      0   1 -0.550000     8.740583349     9.997737181    15.250534661
    250      0   1 -0.550000     6.183798514     9.590190505    18.697017495
    251      0   1 -0.550000     1.909722071    13.513887696    18.941519545
    252      0   1 -0.550000     7.741159837    14.207383472    23.694416310
    253      0   1 -0.550000     4.819000908    14.046204174    15.503259905
    254      0   1 -0.550000     5.204963163    12.653813085    24.040810652
    255      0   1 -0.550000     2.273294509    13.445945943    15.813349253
    256      0   1 -0.550000     7.950974907    12.426120837    19.380445248
    257      0   1 -0.550000     2.558703337    10.866661840    20.069689212
    258      0   1 -0.550000     8.658398765    10.573362101    12.647135479
    259      0   1 -0.550000     5.782320681    11.056272815    16.687187692
    260      0   1 -0.550000     3.293459075    11.957740069    22.191574236
    261      0   1 -0.550000     5.463827946    11.962234145    19.179601645
    262      0   1 -0.550000     1.322167182    11.205291732    18.068816852
    263      0   1 -0.550000     7.886441935    11.553502687    23.886767726
    264      0   1 -0.550000     4.152084867    11.662244172    14.741675940
    265      0   1 -0.550000     6.549673304    10.739245225    14.102576127
    266      0   1 -0.550000     1.020665137    10.856488905    22.195919956
    267      0   1 -0.550000     3.765055340    10.262292692    18.006705532
    268      0   1 -0.550000     0.204928835    13.285288948    17.208081327
    269      0   1 -0.550000     6.488176821    12.625452017    21.688062485
    270      0   1 -0.550000     3.317523760    13.801927040    13.428710553
    271      0   3  1.100000     8.104665400    10.945928083    14.097762161
    272      0   3  1.100000     2.500753982    10.761056240    21.573065286
    273      0   3  1.100000     5.314208149    10.719105990    18.173317373
    274      0   3  1.100000     0.724818845    12.590609427    18.448305218
    275      0   3  1.100000     6.863327644    12.814121188    23.345549231
    276      0   3  1.100000     3.602588763    13.232433710    14.882612964
    277      0   3  1.100000     3.385199625    12.761544234    23.613718619
    278      0   3  1.100000     0.684304005    13.619877494    15.798238859
    279      0   3  1.100000     6.478366779    12.947112825    20.033116221
    280      0   3  1.100000     2.351467815    10.213235821    18.716072113
    281      0   3  1.100000     8.627267171    10.097594351    23.449113261
    282      0   3  1.100000     5.360922445    10.636530454    15.143828403
    283      0   1 -0.550000     3.487070671    14.788268786    11.032505184
    284      0   1 -0.550000     9.158710907    14.665137535     3.436528376
    285      0   1 -0.550000     6.437625023    14.709247600     7.298797846
    286      0   1 -0.550000     1.599007263    19.991607463     7.103303703
    287      0   1 -0.550000     7.740325511    18.781405062    11.326748892
    288      0   1 -0.550000     4.514389408    18.599322288     1.935009096
    289      0   1 -0.550000     5.318278844    18.120383348    11.700888296
    290      0   1 -0.550000     2.447646253    18.314662846     3.509644718
    291      0   1 -0.550000     8.060353644    17.732312387     7.947123597
    292      0   1 -0.550000     2.165143644    15.543504115     8.922253579
    293      0   2 -0.675000     8.906186604    15.476433558     0.906700207
    294      0   1 -0.550000     5.802875031    15.821159735     5.053666027
    295      0   1 -0.550000     3.088749403    17.341351636    10.623130777
    296      0   1 -0.550000     5.617852567    17.154074923     7.157726824
    297      0   1 -0.550000     2.218675248    17.366298536     6.930006905
    298      0   1 -0.550000     7.000234661    16.329121186    10.860478627
    299      0   1 -0.550000     4.132765100    16.263235411     3.142558641
    300      0   1 -0.550000     6.711472371    15.750221239     2.610753631
    301      0   1 -0.550000     1.250263502    15.971433005    11.333033349
    302      0   1 -0.550000     3.870196318    15.284418750     6.813807211
    303      0   1 -0.550000     0.544053780    18.694509896     5.312220932
    304      0   1 -0.550000     6.133814038    18.420790747     9.338981439
    305      0   3  1.100000     8.395095845    15.749838080     2.476622362
    306      0   3  1.100000     2.550988805    15.905825514    10.469758338
    307      0   3  1.100000     5.404634063    15.691199107     6.549910318
    308      0   3  1.100000     1.113496823    18.505735849     6.801504798
    309      0   3  1.100000     6.572229440    17.911959140    10.809799481
    310      0   3  1.100000     3.327377059    17.523018023     2.428317073
    311      0   3  1.100000     3.757280646    18.363476738    11.681833679
    312      0   3  1.100000     0.895690460    18.526119102     3.805988061
    313      0   3  1.100000     6.579002993    18.233235750     7.863417177
    314      0   3  1.100000     2.498421549    15.801055804     7.351615979
    315      0   3  1.100000     8.079973728    15.345391985    11.555805802
    316      0   3  1.100000     5.428425280    15.360061073     3.550923082
    317      0   4  0.400000     9.063980607    16.256266893     0.462412747
    318      0   1 -0.550000     2.902945815    14.357482296    23.421767702
    319      0   1 -0.550000     8.804081618    15.010246871    15.233418780
    320      0   1 -0.550000     6.156804242    14.517268097    19.584698079
    321      0   1 -0.550000     2.094040977    18.433263678    18.919390445
    322      0   1 -0.550000     7.622204749    19.255048302    23.559161002
    323      0   1 -0.550000     4.926678176    19.006241786    15.176121427
    324      0   1 -0.550000     5.331792637    17.800255178    23.544786850
    325      0   1 -0.550000     2.427438958    18.416086920    15.742144997
    326      0   1 -0.550000     7.959850683    17.639423736    19.661851049
    327      0   1 -0.550000     2.568229718    14.993348397    20.974081191
    328      0   1 -0.550000     8.465568045    15.945615949    12.990051850
    329      0   1 -0.550000     5.846186391    15.759140859    17.139952550
    330      0   1 -0.550000     3.054113939    16.977810149    22.506743553
    331      0   1 -0.550000     5.467765388    17.152786302    19.312115225
    332      0   1 -0.550000     1.278986340    15.998993488    18.901136826
    333      0   1 -0.550000     7.523670758    16.756563079    22.638320641
    334      0   1 -0.550000     4.111509926    16.488384686    15.240104733
    335      0   1 -0.550000     6.455943897    15.696948576    14.569046642
    336      0   1 -0.550000     0.623318223    15.856385484    22.514699748
    337      0   1 -0.550000     3.793050505    15.347064803    18.583225780
    338      0   1 -0.550000     0.321757787    17.911680856    17.200326379
    339      0   1 -0.550000     6.279529707    18.663011904    21.321009533
    340      0   1 -0.550000     3.248663032    18.092544581    13.278144601
    341      0   3  1.100000     7.960717825    16.053799828    14.425769385
    342      0   3  1.100000     2.288299697    15.545280771    22.430859828
    343      0   3  1.100000     5.371032805    15.635765590    18.676225387
    344      0   3  1.100000     0.852993408    17.506119549    18.701964961
    345      0   3  1.100000     6.704264749    18.142751969    22.794302305
    346      0   3  1.100000     3.708597380    18.026065896    14.824780615
    347      0   3  1.100000     3.749606140    18.078293957    23.490231225
    348      0   3  1.100000     0.800162689    18.432846252    15.730578328
    349      0   3  1.100000     6.471559912    18.281422465    19.813219993
    350      0   3  1.100000     2.352502270    14.984603224    19.361055884
    351      0   3  1.100000     8.562200688    15.614198593    23.168173713
    352      0   3  1.100000     5.329457220    15.523957791    15.621531837
    353      0   1 -0.550000     3.587206439    19.929589626    11.175915941
    354      0   1 -0.550000     8.796774554    19.712731756     3.702972476
    355      0   1 -0.550000     6.461416239    19.607440783     6.962232682
    356      0   1 -0.550000     1.490853166    24.799803861     6.924658442
    357      0   1 -0.550000     7.840227837    23.728934438    10.604544405
    358      0   1 -0.550000     4.887404695    23.610508053     3.426071798
    359      0   1 -0.550000     5.275568616    23.111360307    11.283157195
    360      0   1 -0.550000     2.624457219    23.047460940     2.191123643
    361      0   1 -0.550000     8.299898661    22.776354336     7.208739720
    362      0   1 -0.550000     3.234068295    21.127979501     8.844831616
    363      0   1 -0.550000    10.180524485    19.303095875     1.682999795
    364      0   1 -0.550000     5.692195084    19.753566793     4.268748474
    365      0   1 -0.550000     2.763633275    22.421384614    10.980155296
    366      0   1 -0.550000     6.037281833    22.019029801     6.150952887
    367      0   1 -0.550000     2.640800660    22.424275443     6.515257633
    368      0   1 -0.550000     7.127131259    21.280832089    10.980757042
    369      0   1 -0.550000     4.629040109    21.256617242     2.177183615
    370      0   1 -0.550000     7.139276717    19.884260512     1.878821336
    371      0   1 -0.550000     1.208897866    20.446051195    10.322268861
    372      0   1 -0.550000     4.059423227    20.241913388     6.363187815
    373      0   1 -0.550000     1.476742094    23.861717362     4.431816093
    374      0   1 -0.550000     6.416336784    22.271564074     8.766072662
    375      0   2 -0.675000     4.939791214    23.622422339     0.862052155
    376      0   3  1.100000     8.798442211    20.280447392     2.242036166
    377      0   3  1.100000     2.722551176    20.984152447    10.302879497