LAMMPS 2005 data file for silica_Q3_50pct_ioni

   2184 atoms
   2744 bonds
   5376 angles
   5 atom types
   3 bond types
   4 angle types

     0.000000000    33.407600000 xlo xhi
     0.000000000    34.870500000 ylo yhi
     0.000000000    65.127600000 zlo zhi

Masses

   1  15.999400
   2  15.999400
   3  28.086000
   4   1.008000
   5  22.989771

Pair Coeffs

   1   0.0400000000   3.6000000000 
   2   0.1200000000   3.6000000000 
   3   0.0800000000   4.2000000000 
   4   0.0130000000   1.0980000000 
   5   0.0800000000   3.3000000000 

Bond Coeffs

  1     1.6800   285.0000     0.0000     0.0000 
  2     1.6800   285.0000     0.0000     0.0000 
  3     0.9450   495.0000     0.0000     0.0000 

Angle Coeffs

  1   149.0000   100.0000     0.0000     0.0000 
  2   115.0000    50.0000     0.0000     0.0000 
  3   109.5000   100.0000     0.0000     0.0000 
  4   109.5000   100.0000     0.0000     0.0000 

Atoms

      1      0   1 -0.550000     2.671295057     1.001542968    11.450833654
      2      0   1 -0.550000     8.463020023     1.101003567     3.525578444
      3      0   1 -0.550000     0.772200308     5.887303703     6.915308226
      4      0   1 -0.550000     6.357595350     6.008493637    11.023156578
      5      0   1 -0.550000     4.575688932     4.924069137     2.991419553
      6      0   1 -0.550000     4.638536078     4.169258873    11.727791043
      7      0   1 -0.550000     2.073871961     4.534192582     3.695166081
      8      0   1 -0.550000     7.597500203     3.792552353     7.674284472
      9      0   1 -0.550000     2.260323123     1.670098587     8.916574807
     10      0   2 -0.900000     8.120226551     1.723339387     0.886955139
     11      0   1 -0.550000     5.423015893     1.482251587     5.021560272
     12      0   1 -0.550000     2.357833874     3.478589735    10.701638233
     13      0   1 -0.550000    -0.183068674     3.606138496     2.655703376
     14      0   1 -0.550000     5.594750614     2.230598908     7.530429895
     15      0   1 -0.550000     1.591174733     3.373260169     6.987656320
     16      0   1 -0.550000     7.067615811     3.475585495    11.136634038
     17      0   1 -0.550000     3.721578125     2.471896500     3.204668626
     18      0   1 -0.550000     6.235983033     2.073565281     2.601646072
     19      0   1 -0.550000     0.294701614     1.771620144    10.451819884
     20      0   1 -0.550000     3.344593825     1.490670851     6.540030568
     21      0   1 -0.550000     0.026975064     4.071055983     5.243747836
     22      0   1 -0.550000     5.543682655     4.200071726     9.255904987
     23      0   2 -0.675000     2.850859770     3.839994464     1.300965516
     24      0   3  0.725000     7.803661134     2.162300468     2.481542860
     25      0   3  1.100000     1.903961958     1.959012683    10.421961052
     26      0   3  1.100000     4.883985781     1.192010024     6.544046073
     27      0   3  1.100000     0.369867115     4.355358823     6.745869946
     28      0   3  1.100000     5.901258958     4.484794149    10.810581421
     29      0   3  1.100000     3.305846232     3.958040644     2.874185731
     30      0   3  1.100000     3.032078196     4.463972698    11.804089977
     31      0   3  1.100000     0.442065187     4.563817482     3.779684470
     32      0   3  1.100000     6.019899821     3.753180721     7.796894178
     33      0   3  1.100000     1.994485669     1.862766115     7.352765645
     34      0   3  1.100000     7.527563414     2.001633746    11.405754413
     35      0   3  1.100000     4.958511524     1.461360379     3.490583327
     36      0   4  0.400000     3.051407525     2.956982489     1.093557386
     37      0   1 -0.550000     2.319422255     0.899322538    23.498069900
     38      0   1 -0.550000     8.252503508     1.034242386    15.541712746
     39      0   1 -0.550000     0.366863473     5.867319858    19.099533941
     40      0   1 -0.550000     5.971666512     5.819214534    22.735661582
     41      0   1 -0.550000     4.122525175     4.934829429    15.050496978
     42      0   1 -0.550000     4.172985565     3.979246279    23.718612367
     43      0   1 -0.550000     1.634817076     4.345052993    15.668403104
     44      0   1 -0.550000     7.124186089     3.844571362    19.760383431
     45      0   1 -0.550000     2.064488848     1.920479177    20.983890025
     46      0   1 -0.550000     7.904040736     1.749471226    13.010497981
     47      0   1 -0.550000     5.074959507     1.550619784    16.984595905
     48      0   1 -0.550000     1.650479070     3.334691785    23.326236602
     49      0   1 -0.550000    -0.743768065     3.537036287    14.746918834
     50      0   1 -0.550000     5.189886556     2.112972312    19.484528243
     51      0   1 -0.550000     1.189620114     3.290672977    18.970642077
     52      0   1 -0.550000     6.687155091     3.410046624    23.229144486
     53      0   1 -0.550000     3.372101397     2.359579772    15.026726310
     54      0   1 -0.550000     5.843000766     1.793559271    14.510508343
     55      0   1 -0.550000    -0.041543394     1.470583411    22.725168476
     56      0   1 -0.550000     2.892914789     1.203573563    18.574766680
     57      0   1 -0.550000    -0.467366560     4.184700178    17.238754532
     58      0   1 -0.550000     5.003572198     3.877060988    21.219652900
     59      0   1 -0.550000     2.463108226     4.113013313    13.253709880
     60      0   3  1.100000     7.437039703     2.006419915    14.505715410
     61      0   3  1.100000     1.488499649     1.888827677    22.562984743
     62      0   3  1.100000     4.528266385     1.136532833    18.486613779
     63      0   3  1.100000    -0.074891271     4.277628078    18.812019746
     64      0   3  1.100000     5.465849485     4.322450133    22.729768379
     65      0   3  1.100000     2.862807950     3.895122349    14.796533312
     66      0   3  0.725000     2.649760569     4.343026914    24.101145537
     67      0   3  1.100000     0.028055409     4.537092187    15.748070409
     68      0   3  1.100000     5.557453542     3.616723875    19.811486171
     69      0   3  1.100000     1.639138459     1.845438245    19.425586559
     70      0   3  0.725000     7.051953817     1.845682915    23.530715119
     71      0   3  1.100000     4.594388769     1.478338943    15.409711170
     72      0   2 -0.900000     2.351454403     4.288108821    25.697728765
     73      0   2 -0.900000     7.314314852     1.715548977    25.211110005
     74      0   1 -0.550000     2.675041060     5.993436517    11.398564049
     75      0   1 -0.550000     8.569678505     6.102364820     3.446533177
     76      0   1 -0.550000     5.284596858     4.694929061     6.728641061
     77      0   1 -0.550000     0.929993138    10.851702546     6.746970699
     78      0   1 -0.550000     6.236252617    10.950045470    10.991937850
     79      0   1 -0.550000     4.592431272     9.854477015     2.900100238
     80      0   1 -0.550000     4.449487661     9.133168896    11.657385312
     81      0   1 -0.550000     2.119437601     9.384493289     3.556026983
     82      0   1 -0.550000     7.572589887     8.803170996     7.683740525
     83      0   1 -0.550000     2.335726019     6.623877173     8.848565542
     84      0   2 -0.675000     8.476082750     6.604732495     0.962256832
     85      0   1 -0.550000     5.372354321     6.496922388     4.904320176
     86      0   1 -0.550000     2.044676475     8.426359840    10.704228694
     87      0   1 -0.550000    -0.167879457     8.569000601     2.517101866
     88      0   1 -0.550000     5.618578573     7.186962671     7.479520668
     89      0   1 -0.550000     1.653718096     8.371197597     7.076326541
     90      0   1 -0.550000     6.943372038     8.554642092    11.340465905
     91      0   1 -0.550000     3.732950925     7.415858597     3.039181186
     92      0   1 -0.550000     6.248472392     6.916494641     2.436152117
     93      0   1 -0.550000     0.253050970     6.568540017    10.500073502
     94      0   1 -0.550000     3.325252218     6.406684821     6.403145335
     95      0   1 -0.550000     0.074126015     9.157274656     5.129493431
     96      0   1 -0.550000     5.365974849     9.036992606     9.320092259
     97      0   2 -0.900000     2.948201528     8.848587028     0.947424534
     98      0   3  1.100000     7.828368257     7.029265831     2.403060999
     99      0   3  1.100000     1.822954141     6.908844266    10.378889322
    100      0   3  1.100000     4.903663362     6.177230838     6.377198254
    101      0   3  1.100000     0.403317594     9.362309492     6.692758248
    102      0   3  1.100000     5.729862222     9.448075317    10.858447048
    103      0   3  0.725000     3.336357447     8.874892740     2.590823126
    104      0   3  1.100000     2.844953075     9.353994863    11.726689807
    105      0   3  1.100000     0.531138377     9.538068213     3.580231486
    106      0   3  1.100000     5.921375115     8.702348051     7.872416166
    107      0   3  1.100000     1.994250286     6.789889683     7.323683758
    108      0   3  1.100000     7.533572711     7.064480669    11.407502299
    109      0   3  1.100000     5.016228538     6.443296883     3.371088883
    110      0   4  0.400000     8.090217672     7.198848345     0.333713176
    111      0   1 -0.550000     2.375992533     5.832454847    23.577478546
    112      0   1 -0.550000     8.037466441     6.069315575    15.510688013
    113      0   1 -0.550000     4.765783494     4.579957400    18.715317550
    114      0   1 -0.550000     0.339118507    10.844506113    19.033728114
    115      0   1 -0.550000     5.993943360    10.877519958    22.959313761
    116      0   1 -0.550000     4.169744528     9.866774045    15.048099547
    117      0   1 -0.550000     4.246634156     8.923906988    23.573658484
    118      0   1 -0.550000     1.597385212     9.180192464    15.748976685
    119      0   1 -0.550000     7.247687501     8.716776316    19.660378494
    120      0   1 -0.550000     1.999446809     6.536748482    20.969576857
    121      0   1 -0.550000     7.898134042     6.767810001    12.929017159
    122      0   1 -0.550000     4.903629161     6.542093749    16.897220915
    123      0   1 -0.550000     1.868553981     8.220172451    22.797518018
    124      0   1 -0.550000    -0.650914670     8.504264978    14.671138185
    125      0   1 -0.550000     5.161499821     7.154543323    19.447738672
    126      0   1 -0.550000     1.095752764     8.375528784    19.381801584
    127      0   1 -0.550000     6.668557856     8.300837678    23.167548640
    128      0   1 -0.550000     3.345402575     7.359997742    14.952693547
    129      0   1 -0.550000     5.786295696     7.014662652    14.515365941
    130      0   1 -0.550000    -0.042623740     6.546565491    22.570758057
    131      0   1 -0.550000     2.847687134     6.494163339    18.436028360
    132      0   1 -0.550000    -0.462809795     9.043281155    17.276449413
    133      0   1 -0.550000     5.161771416     9.030110600    21.198602988
    134      0   1 -0.550000     2.402488161     8.996153472    13.212386037
    135      0   3  1.100000     7.388198825     7.099904778    14.411474346
    136      0   3  1.100000     1.513206771     6.734586885    22.455467081
    137      0   3  1.100000     4.450871791     6.154522302    18.376893646
    138      0   3  1.100000    -0.113065495     9.347915585    18.842914184
    139      0   3  1.100000     5.511785299     9.308683987    22.761570057
    140      0   3  1.100000     2.898113324     8.872971817    14.744975988
    141      0   3  1.100000     2.679732617     9.208489897    23.753135767
    142      0   3  1.100000     0.007297483     9.374711678    15.788745673
    143      0   3  1.100000     5.647707669     8.695256774    19.718217977
    144      0   3  1.100000     1.602076769     6.864825459    19.455834346
    145      0   3  1.100000     7.119291338     6.763478815    23.348906035
    146      0   3  1.100000     4.556550518     6.452624552    15.329202254
    147      0   2 -0.675000     2.191770464     8.845792579    25.317461766
    148      0   2 -0.675000     7.358226778     6.458284247    24.932598725
    149      0   4  0.400000     1.300804690     9.068267729    25.342961848
    150      0   4  0.400000     7.669126245     7.280135931    25.270112803
    151      0   1 -0.550000     2.527508495    10.859318563    11.408150879
    152      0   1 -0.550000     8.593675457    11.019845250     3.340271416
    153      0   1 -0.550000     5.310281724     9.701075962     6.761284832
    154      0   1 -0.550000     0.933334766    15.761638799     7.080407193
    155      0   1 -0.550000     6.349628555    15.918321558    11.031059222
    156      0   1 -0.550000     4.578692574    14.895803355     2.801461952
    157      0   1 -0.550000     4.542441647    14.129185401    11.789969839
    158      0   1 -0.550000     2.162743971    14.257432254     3.721721930
    159      0   1 -0.550000     7.656802528    13.950910219     7.665670030
    160      0   1 -0.550000     2.415315505    11.402700285     8.864045576
    161      0   2 -0.900000     8.410398942    11.522388880     0.710929472
    162      0   1 -0.550000     5.551208862    11.450456824     4.833655786
    163      0   1 -0.550000     2.168109486    13.423702771    10.669253604
    164      0   1 -0.550000    -0.220566928    13.558413088     2.740882409
    165      0   1 -0.550000     5.735700514    12.128480146     7.433080566
    166      0   1 -0.550000     1.726151549    13.264433794     7.145112751
    167      0   1 -0.550000     7.075210419    13.412838365    11.294802749
    168      0   1 -0.550000     3.827661227    12.366214400     3.008305086
    169      0   1 -0.550000     6.229806756    11.782551601     2.267166975
    170      0   1 -0.550000     0.286195653    11.697030447    10.313471485
    171      0   1 -0.550000     3.433463822    11.428797767     6.341918177
    172      0   1 -0.550000     0.114022355    14.001147819     5.320027467
    173      0   1 -0.550000     5.547497060    14.156923736     9.308174592
    174      0   2 -0.675000     2.704540330    13.938229004     1.165039039
    175      0   3  0.725000     7.831102316    11.913872972     2.219457219
    176      0   3  1.100000     1.853871742    11.872335226    10.296177935
    177      0   3  1.100000     5.001984875    11.218907005     6.334702719
    178      0   3  1.100000     0.459346693    14.203596437     6.779226480
    179      0   3  1.100000     5.888365224    14.355389953    10.855208006
    180      0   3  1.100000     3.358095128    13.859589855     2.699410174
    181      0   3  1.100000     2.928592349    14.315249431    11.842304109
    182      0   3  1.100000     0.561178827    14.426902425     3.888880526
    183      0   3  1.100000     6.093580601    13.653436824     7.805119665
    184      0   3  1.100000     2.140398721    11.732838740     7.326857653
    185      0   3  1.100000     7.500325426    11.811023947    11.458670668
    186      0   3  1.100000     5.041070452    11.394526212     3.258084588
    187      0   4  0.400000     2.974796836    13.058722209     0.806077379
    188      0   1 -0.550000     2.324721380    10.765552537    23.424685718
    189      0   1 -0.550000     7.982618278    11.080772344    15.580186503
    190      0   1 -0.550000     4.969413560     9.603432691    18.633384073
    191      0   1 -0.550000     0.378272486    15.786790916    19.153617063
    192      0   1 -0.550000     5.888972793    15.871788372    22.947589124
    193      0   1 -0.550000     4.189997489    14.882039343    15.191306509
    194      0   1 -0.550000     4.197489495    14.039505891    23.697238165
    195      0   1 -0.550000     1.633298155    14.281047633    15.775079155
    196      0   1 -0.550000     7.099040390    13.817423255    19.867642433
    197      0   1 -0.550000     2.041234257    11.592363573    20.916076686
    198      0   1 -0.550000     7.826849335    11.549778430    13.014837293
    199      0   1 -0.550000     4.912372517    11.506738304    16.864641326
    200      0   1 -0.550000     1.756564185    13.298809465    22.921682579
    201      0   1 -0.550000    -0.720917849    13.462970809    14.748797015
    202      0   1 -0.550000     5.148302302    12.134838453    19.461727550
    203      0   1 -0.550000     1.243556924    13.290040894    19.023169377
    204      0   1 -0.550000     6.695323068    13.369553568    23.232773448
    205      0   1 -0.550000     3.315734312    12.334283351    15.068956429
    206      0   1 -0.550000     5.781942124    11.748489317    14.432978843
    207      0   1 -0.550000    -0.041004228    11.444693014    22.564021313
    208      0   1 -0.550000     2.897336762    11.249684459    18.485254848
    209      0   1 -0.550000    -0.434964238    14.101901007    17.246267256
    210      0   1 -0.550000     4.995132626    14.123000966    21.278528954
    211      0   1 -0.550000     2.425541570    14.090721132    13.347690354
    212      0   3  1.100000     7.323460571    11.963725346    14.459987589
    213      0   3  1.100000     1.542064272    11.735563432    22.399764439
    214      0   3  1.100000     4.489822577    11.159482291    18.371517763
    215      0   3  1.100000    -0.000804103    14.227981226    18.794077616
    216      0   3  1.100000     5.450929851    14.334429508    22.725299736
    217      0   3  1.100000     2.875160505    13.929669705    14.889801506
    218      0   3  0.725000     2.584990126    14.287161269    23.861107049
    219      0   3  1.100000     0.007398074    14.445035105    15.763096823
    220      0   3  1.100000     5.502671769    13.651131716    19.809737320
    221      0   3  1.100000     1.634782875    11.758760268    19.313275964
    222      0   3  0.725000     7.206779217    11.885330868    23.361211692
    223      0   3  1.100000     4.500082843    11.366332894    15.341444211
    224      0   2 -0.900000     2.120113572    14.030667563    25.381520673
    225      0   2 -0.900000     7.644516363    11.513480795    24.932664355
    226      0   1 -0.550000     2.758949917    15.910810698    11.420845492
    227      0   1 -0.550000     8.697567690    15.951161532     3.190302616
    228      0   1 -0.550000     5.253983041    14.558189438     6.747424319
    229      0   1 -0.550000     0.908865038    20.744937649     6.838426342
    230      0   1 -0.550000     6.516703909    20.934949723    10.884872843
    231      0   1 -0.550000     4.677082489    19.873023967     2.831923279
    232      0   1 -0.550000     4.628141021    19.302531724    11.684070733
    233      0   1 -0.550000     2.199600455    19.501033339     3.670320236
    234      0   1 -0.550000     7.653933677    18.734798529     7.652521315
    235      0   1 -0.550000     2.579083432    16.512150152     8.915927191
    236      0   2 -0.675000     8.349036516    16.886691600     0.708422858
    237      0   1 -0.550000     5.451975996    16.334329953     4.905460018
    238      0   1 -0.550000     2.391889910    18.439596925    10.703516414
    239      0   1 -0.550000     0.060862107    18.407806431     2.649964596
    240      0   1 -0.550000     5.696649137    17.077157615     7.347842900
    241      0   1 -0.550000     1.661381106    18.260798044     7.213768665
    242      0   1 -0.550000     7.039128484    18.304922008    11.410352385
    243      0   1 -0.550000     3.785809401    17.366212266     3.049006650
    244      0   1 -0.550000     6.274125069    16.787580306     2.320485698
    245      0   1 -0.550000     0.504980735    16.685778679    10.402918651
    246      0   1 -0.550000     3.358567905    16.448604565     6.460071787
    247      0   1 -0.550000     0.218622748    18.906332261     5.213513079
    248      0   1 -0.550000     5.558127500    18.963416468     9.208040324
    249      0   2 -0.675000     3.093575413    18.941999999     1.168329355
    250      0   3  1.100000     7.873292127    17.016789619     2.293463682
    251      0   3  1.100000     2.046364390    16.900211982    10.409006815
    252      0   3  1.100000     4.916760289    16.125697942     6.377865655
    253      0   3  1.100000     0.498398070    19.173202074     6.789395296
    254      0   3  1.100000     5.938622421    19.405905488    10.754426123
    255      0   3  1.100000     3.425599630    18.902734044     2.747326954
    256      0   3  1.100000     3.081593032    19.449050770    11.792561265
    257      0   3  1.100000     0.628075760    19.409189277     3.754003287
    258      0   3  1.100000     6.063304770    18.604804625     7.698832086
    259      0   3  1.100000     2.100166408    16.697970553     7.419737856
    260      0   3  1.100000     7.592605452    16.835895943    11.468969779
    261      0   3  1.100000     5.052817451    16.351554749     3.323916957
    262      0   4  0.400000     7.681318766    17.190361184     0.133226291
    263      0   4  0.400000     2.657201269    19.767273792     1.009732878
    264      0   1 -0.550000     2.328670577    15.794861916    23.568280671
    265      0   1 -0.550000     8.004388148    15.961431441    15.541389421
    266      0   1 -0.550000     4.907039190    14.662785513    18.680989111
    267      0   1 -0.550000     0.393731287    20.763453472    19.172076513
    268      0   1 -0.550000     5.848941661    20.836327770    23.125060826
    269      0   1 -0.550000     4.051206268    19.876203641    15.034368364
    270      0   1 -0.550000     4.262497332    18.966000604    23.758640980
    271      0   1 -0.550000     1.548916521    19.328069066    15.665100362
    272      0   1 -0.550000     7.190340662    18.867832593    19.783699515
    273      0   1 -0.550000     2.145090278    16.488534774    21.084477913
    274      0   1 -0.550000     7.919871723    16.540204997    12.966519010
    275      0   1 -0.550000     5.018592423    16.664293495    17.113619030
    276      0   1 -0.550000     1.834431556    18.357010774    22.968121716
    277      0   1 -0.550000    -0.751901841    18.443265940    14.736491358
    278      0   1 -0.550000     5.263939523    17.150242225    19.592370195
    279      0   1 -0.550000     1.303501019    18.269672812    19.228555135
    280      0   1 -0.550000     6.719625815    18.388486840    23.305962670
    281      0   1 -0.550000     3.379189027    17.348814638    15.161189017
    282      0   1 -0.550000     5.851438326    16.903739400    14.521713729
    283      0   1 -0.550000     0.083712322    16.519313269    22.445232635
    284      0   1 -0.550000     2.887380281    16.370418316    18.537006168
    285      0   1 -0.550000    -0.418223910    19.129148908    17.290181561
    286      0   1 -0.550000     5.077389782    19.150842323    21.327819143
    287      0   1 -0.550000     2.479005603    18.976480826    13.243216774
    288      0   3  1.100000     7.471972891    16.937033315    14.456683882
    289      0   3  1.100000     1.690677183    16.809798461    22.531312395
    290      0   3  1.100000     4.526071493    16.242590006    18.506758381
    291      0   3  1.100000     0.062954396    19.239648308    18.871542450
    292      0   3  1.100000     5.506924750    19.316331134    22.812543466
    293      0   3  1.100000     2.818996614    18.806835741    14.762269538
    294      0   3  1.100000     2.685774103    19.366497936    23.893233018
    295      0   3  1.100000    -0.016397696    19.523672119    15.724688696
    296      0   3  1.100000     5.619019161    18.668841636    19.910456468
    297      0   3  1.100000     1.651997992    16.680993551    19.518208102
    298      0   3  1.100000     7.151558869    16.789152444    23.358491900
    299      0   3  1.100000     4.676205337    16.422611198    15.530378029
    300      0   2 -0.675000     2.321651348    19.051801828    25.468637004
    301      0   2 -0.675000     7.524660362    16.557810855    24.943416121
    302      0   4  0.400000     1.705029037    19.715429690    25.706250216
    303      0   4  0.400000     6.653824218    16.238585884    25.242325839
    304      0   1 -0.550000     2.811267214    20.979002888    11.479461920
    305      0   1 -0.550000     8.724568284    20.891106869     3.231587130
    306      0   1 -0.550000     5.282639360    19.625402947     6.684079141
    307      0   1 -0.550000     0.815707859    25.770788326     7.191358375
    308      0   1 -0.550000     6.336734821    25.894597795    10.817317199
    309      0   1 -0.550000     4.617069993    24.878890799     3.044097175
    310      0   1 -0.550000     4.489011815    24.180605644    11.748711625
    311      0   1 -0.550000     2.201423161    24.084080568     3.781064151
    312      0   1 -0.550000     7.548085957    23.813087799     7.734974042
    313      0   1 -0.550000     2.532942412    21.605007202     8.787552647
    314      0   2 -0.900000     8.509597607    21.664850458     0.559359670
    315      0   1 -0.550000     5.517152826    21.412515108     4.753470677
    316      0   1 -0.550000     2.295660686    23.499439087    10.733570206
    317      0   1 -0.550000    -0.125251070    23.391315594     2.657860002
    318      0   1 -0.550000     5.629514809    22.148773109     7.365007120
    319      0   1 -0.550000     1.676332929    23.260168095     6.905657695
    320      0   1 -0.550000     6.989917432    23.395646781    11.293701513
    321      0   1 -0.550000     3.955550412    22.312935494     2.915178770
    322      0   1 -0.550000     6.480656175    21.708589196     2.232657329
    323      0   1 -0.550000     0.453844374    21.645532949    10.449683043
    324      0   1 -0.550000     3.408587707    21.319690282     6.342818661
    325      0   1 -0.550000    -0.085286328    24.191085866     5.224983881
    326      0   1 -0.550000     5.391929299    24.048063003     9.259791644
    327      0   2 -0.900000     2.933923664    24.216204666     1.255943823
    328      0   3  0.725000     8.035541132    21.954290335     2.187545031
    329      0   3  1.100000     2.068538635    21.910830625    10.365158140
    330      0   3  1.100000     5.013124304    21.141137112     6.272471805
    331      0   3  1.100000     0.361767541    24.250685493     6.772101746
    332      0   3  1.100000     5.776035430    24.355456482    10.790632744
    333      0   3  0.725000     3.382295273    23.811690575     2.777043668
    334      0   3  1.100000     2.933891475    24.524333197    11.810567096
    335      0   3  1.100000     0.578257140    24.379107259     3.729630124
    336      0   3  1.100000     5.942098840    23.719217657     7.731217198
    337      0   3  1.100000     2.172497259    21.775212425     7.257359163
    338      0   3  1.100000     7.599592492    21.882078209    11.463204941
    339      0   3  1.100000     5.219251035    21.345054793     3.208133754
    340      0   1 -0.550000     2.449268938    21.004050890    23.565043559
    341      0   1 -0.550000     8.119349399    20.900712525    15.555249934
    342      0   1 -0.550000     4.788633710    19.578170107    18.779181497
    343      0   1 -0.550000     0.386508864    25.788394183    19.050631743
    344      0   1 -0.550000     5.952359106    25.822560583    22.792918115
    345      0   1 -0.550000     4.037197987    24.956762620    14.863764666
    346      0   1 -0.550000     4.121748614    24.246110677    23.844784440
    347      0   1 -0.550000     1.677616468    24.296731421    15.670670240
    348      0   1 -0.550000     7.079328608    23.796073315    19.845102330
    349      0   1 -0.550000     2.111237436    21.655313518    21.039268377
    350      0   1 -0.550000     7.919398946    21.536185062    13.006675988
    351      0   1 -0.550000     4.919359557    21.438575108    16.934529737
    352      0   1 -0.550000     1.745458956    23.508801114    23.026480449
    353      0   1 -0.550000    -0.704243911    23.537343218    14.674246932
    354      0   1 -0.550000     5.118837232    22.093086126    19.485887173
    355      0   1 -0.550000     1.194547054    23.248884105    19.165600360
    356      0   1 -0.550000     6.475660833    23.357986280    23.295664524
    357      0   1 -0.550000     3.294167636    22.380989264    14.927303357
    358      0   1 -0.550000     5.811779380    21.678545753    14.442952699
    359      0   1 -0.550000     0.087595129    21.566649130    22.739612904
    360      0   1 -0.550000     2.818389046    21.315463210    18.478971725
    361      0   1 -0.550000    -0.481578034    24.200624888    17.227419815
    362      0   1 -0.550000     4.855735849    24.034961164    21.299385836
    363      0   1 -0.550000     2.341363129    24.108045774    13.216855644
    364      0   3  1.100000     7.374900716    21.863668583    14.496841825
    365      0   3  1.100000     1.637247351    21.940455525    22.584295245
    366      0   3  1.100000     4.379585073    21.101625446    18.415561398
    367      0   3  1.100000    -0.067093468    24.244538540    18.750358271
    368      0   3  1.100000     5.351696985    24.331526675    22.772321823
    369      0   3  1.100000     2.846807970    23.941334652    14.681760621
    370      0   3  0.725000     2.515491913    24.510987728    24.026141834
    371      0   3  1.100000     0.064946095    24.544981296    15.682846567
    372      0   3  1.100000     5.486842794    23.611196197    19.891024146
    373      0   3  1.100000     1.643526231    21.742965908    19.467039733
    374      0   3  0.725000     7.036259633    21.853221678    23.505325895
    375      0   3  1.100000     4.524520382    21.357246667    15.347208084
    376      0   2 -0.900000     1.975484058    24.186825478    25.560673666
    377      0   2 -0.900000     7.470115984    21.564516854    25.130859749