LAMMPS 2005 data file for silica_Q3_27pct_ioni

   2184 atoms
   2770 bonds
   5402 angles

   5 atom types
   3 bond types
   4 angle types

     0.000000000    33.407100000 xlo xhi
     0.000000000    34.870300000 ylo yhi
     0.000000000    65.136900000 zlo zhi

Masses

   1  15.999400
   2  15.999400
   3  28.086000
   4   1.008000
   5  22.989771

Pair Coeffs

   1   0.0400000000   3.6000000000 
   2   0.1200000000   3.6000000000 
   3   0.0800000000   4.2000000000 
   4   0.0130000000   1.0980000000 
   5   0.0800000000   3.3000000000 

Bond Coeffs

  1     1.6800   285.0000     0.0000     0.0000 
  2     1.6800   285.0000     0.0000     0.0000 
  3     0.9450   495.0000     0.0000     0.0000 

Angle Coeffs

  1   149.0000   100.0000     0.0000     0.0000 
  2   115.0000    50.0000     0.0000     0.0000 
  3   109.5000   100.0000     0.0000     0.0000 
  4   109.5000   100.0000     0.0000     0.0000 

Atoms

      1      0   1 -0.550000     3.272579059     0.183847468    10.990353439
      2      0   1 -0.550000     9.306202074     0.539876608     2.935557262
      3      0   1 -0.550000     6.246111685     0.364628951     7.004821998
      4      0   1 -0.550000     2.192908373     4.111937645     6.861911977
      5      0   1 -0.550000     7.432297369     4.279036291    10.604287263
      6      0   1 -0.550000     5.161683730     4.290229686     2.760039415
      7      0   1 -0.550000     5.012187040     3.505962007    11.437322823
      8      0   1 -0.550000     2.711072665     3.640770136     3.388076382
      9      0   1 -0.550000     7.798439608     3.464013018     7.503184499
     10      0   1 -0.550000     3.121612353     1.002323017     8.565632785
     11      0   2 -0.675000     9.027118887     1.826841866     0.626891884
     12      0   1 -0.550000     5.943777539     0.998557158     4.572858127
     13      0   1 -0.550000     2.565885221     2.694808774    10.479680622
     14      0   1 -0.550000     5.506946054     2.724343810     6.408135667
     15      0   1 -0.550000     1.499229884     1.597046544     6.701805562
     16      0   1 -0.550000     6.769701051     1.706431035    10.550223982
     17      0   1 -0.550000     4.448141593     1.753896703     2.520042370
     18      0   1 -0.550000     6.909075382     1.005395199     2.133559072
     19      0   1 -0.550000     0.880136336     0.792895548     9.959496745
     20      0   1 -0.550000     3.916801410     0.782169541     6.057855597
     21      0   1 -0.550000     0.661707277     3.445496788     4.928498906
     22      0   1 -0.550000     5.718212825     3.404419700     8.856664062
     23      0   2 -0.675000     3.671192594     3.675326664     0.847847940
     24      0   3  1.100000     8.428631336     1.611325891     2.119424484
     25      0   3  1.100000     2.469906755     1.170017913    10.019878732
     26      0   3  1.100000     5.423495089     1.215342276     6.029742206
     27      0   3  1.100000     1.029506085     3.102582033     6.457808854
     28      0   3  1.100000     6.202782774     3.209738705    10.396760945
     29      0   3  1.100000     3.983916419     3.275016014     2.407303445
     30      0   3  1.100000     3.404470392     3.783843149    11.443901654
     31      0   3  1.100000     1.130549339     3.852537920     3.446940569
     32      0   3  1.100000     6.224964946     3.778612775     7.422610314
     33      0   3  1.100000     2.690694288     0.566493266     7.041754887
     34      0   3  1.100000     8.006031088     0.738337491    10.988008432
     35      0   3  1.100000     5.581711324     0.797568123     2.988735098
     36      0   4  0.400000     9.650463377     2.548779017     0.723681002
     37      0   1 -0.550000     2.591374807     0.488756798    23.095720784
     38      0   1 -0.550000     8.639964316     0.226901794    14.947745767
     39      0   1 -0.550000     5.911239041     0.073294639    18.888007703
     40      0   1 -0.550000     1.620925433     4.172926110    18.932951081
     41      0   1 -0.550000     7.288078901     4.241097635    22.696757070
     42      0   1 -0.550000     4.639029738     4.114169361    14.764515895
     43      0   1 -0.550000     4.709117637     3.682196400    23.258432817
     44      0   1 -0.550000     2.150818747     3.334609331    15.344560539
     45      0   1 -0.550000     7.544579183     3.352044257    19.186400127
     46      0   1 -0.550000     2.725270550     1.052198107    20.522813359
     47      0   1 -0.550000     8.431838194     0.999219659    12.515208747
     48      0   1 -0.550000     5.599183269     0.967895612    16.398996394
     49      0   1 -0.550000     2.356723416     2.998947784    22.243469950
     50      0   1 -0.550000     5.176382903     2.619209973    18.404105431
     51      0   1 -0.550000     1.220601442     1.633925460    18.410294075
     52      0   1 -0.550000     6.454337866     1.746566853    22.628883873
     53      0   1 -0.550000     3.826201474     1.567574121    14.509179001
     54      0   1 -0.550000     6.258004734     0.739599879    13.992643667
     55      0   1 -0.550000     0.447798283     1.201310523    21.843529797
     56      0   1 -0.550000     3.552764386     0.596631567    18.028135597
     57      0   1 -0.550000     0.128202639     3.638747822    16.970182231
     58      0   1 -0.550000     5.520008446     3.454841937    20.831758314
     59      0   1 -0.550000     2.888096704     3.633377674    12.924007708
     60      0   3  1.100000     7.805789195     1.190207800    13.959293320
     61      0   3  1.100000     2.014808579     1.439725621    21.929378792
     62      0   3  1.100000     5.115949427     1.061585085    17.914014515
     63      0   3  1.100000     0.544100944     3.146309641    18.437976028
     64      0   3  1.100000     5.990580628     3.289173252    22.347558751
     65      0   3  1.100000     3.406975843     3.125457254    14.367832156
     66      0   3  1.100000     3.204361911     3.996377874    23.228599980
     67      0   3  1.100000     0.586691735     3.661204239    15.440963036
     68      0   3  1.100000     5.952396528     3.628914241    19.331654670
     69      0   3  1.100000     2.315639355     0.623418916    19.028572232
     70      0   3  1.100000     7.636381318     0.808290752    22.940173835
     71      0   3  1.100000     5.063199564     0.580706363    14.952957001
     72      0   2 -0.675000     8.152421477     1.072189244    24.454867770
     73      0   2 -0.675000     2.647933123     3.863173255    24.736715084
     74      0   2 -0.900000     8.191841627     5.989145591    24.387971013
     75      0   2 -0.675000     2.245828485     9.009541454    24.673531901
     76      0   2 -0.675000     7.820254401    11.000355965    24.400804490
     77      0   2 -0.675000     2.227194166    13.130548037    24.772866627
     78      0   2 -0.675000     8.330313936    15.635212214    24.598169435
     79      0   2 -0.675000     2.559504610    18.286122130    24.896429856
     80      0   2 -0.900000     8.485222757    20.662010826    24.364913072
     81      0   2 -0.675000     2.422769390    23.655904605    24.823152272
     82      0   2 -0.675000     8.086909399    26.035837930    24.573416800
     83      0   2 -0.900000     2.431689053    28.486834918    24.769153052
     84      0   2 -0.900000     7.968748512    30.930233159    24.542931710
     85      0   2 -0.675000     2.260978670    33.489691035    24.872199412
     86      0   2 -0.675000    16.605752594     1.186107054    24.574003052
     87      0   2 -0.675000    10.671917993     3.863208069    24.848295094
     88      0   2 -0.675000    16.387839634     6.085806182    24.495643325
     89      0   2 -0.675000    10.456876370     8.496529396    24.590678225
     90      0   2 -0.900000    16.428661601    10.993556375    24.486653485
     91      0   2 -0.900000    10.500238136    13.821502959    24.782830965
     92      0   2 -0.675000    16.280035074    16.180583377    24.351169157
     93      0   2 -0.675000    10.663933208    19.202583789    24.660374238
     94      0   2 -0.675000    16.350289239    21.239286958    24.310653727
     95      0   2 -0.675000    10.695135599    23.147110724    24.589115534
     96      0   2 -0.900000    16.509941142    25.643371801    24.610804907
     97      0   2 -0.675000    10.901558234    28.437389024    24.943850244
     98      0   2 -0.675000    16.531657369    31.198523377    24.494144695
     99      0   2 -0.675000    10.731014366    33.701402928    24.871222972
    100      0   2 -0.675000    25.022505031     1.065971875    24.444315239
    101      0   2 -0.675000    19.024294341     3.876354150    24.917664980
    102      0   2 -0.900000    24.762866091     6.277767029    24.552963991
    103      0   2 -0.675000    19.064883335     8.361964444    24.778793205
    104      0   2 -0.675000    24.936848792    11.050116741    24.435457403
    105      0   2 -0.675000    19.091041971    13.702735128    24.822109831
    106      0   2 -0.900000    24.737107690    15.708963289    24.414352340
    107      0   2 -0.900000    19.031643928    18.718444267    24.786218413
    108      0   2 -0.675000    24.887040457    20.713025936    24.358724428
    109      0   2 -0.675000    19.021520574    23.558860543    24.765765604
    110      0   2 -0.675000    24.923686839    25.516757890    24.588333218
    111      0   2 -0.675000    19.366282107    29.033391826    24.913561218
    112      0   2 -0.675000    25.028685773    30.597326574    24.450503883
    113      0   2 -0.900000    19.034985192    33.463245409    24.982670979
    114      0   2 -0.675000    27.506257187     3.613222600    24.899817303
    115      0   2 -0.675000    27.727411850     8.388361568    24.806215032
    116      0   2 -0.675000    27.516846486    13.560254468    24.718411218
    117      0   2 -0.675000    27.467705209    18.447398049    24.863991887
    118      0   2 -0.900000    27.182307868    23.612768830    24.759186773
    119      0   2 -0.675000    27.422271580    28.298674483    24.853961547
    120      0   2 -0.900000    27.605742437    33.256664336    24.686755566
    121      0   2 -0.675000    32.929675327     1.119347823    24.271506865
    122      0   2 -0.675000    32.985926187     6.021470402    24.321858512
    123      0   2 -0.900000    33.571021487    10.726973589    24.438582784
    124      0   2 -0.675000    32.921330224    15.795267054    24.460730288
    125      0   2 -0.900000    33.103024759    20.844939848    24.405362500
    126      0   2 -0.675000    32.993713406    26.032244321    24.395072035
    127      0   2 -0.675000    33.006521669    30.765818808    24.224152479
    128      0   4  0.400000    33.107584151    25.202373314    24.812663065
    129      0   4  0.400000    10.400437829    34.560011758    25.115695097
    130      0   4  0.400000    33.775498574    30.250052934    24.405698670
    131      0   4  0.400000    17.440874944    31.480510039    24.295659393
    132      0   4  0.400000    26.758055918    28.908538802    25.043681452
    133      0   4  0.400000    11.407713110    27.713215694    25.251759943
    134      0   4  0.400000     8.893199059    25.592001775    24.727662055
    135      0   4  0.400000    25.066328009    31.480779998    24.734345326
    136      0   4  0.400000    25.021387727    24.623521583    24.827942259
    137      0   4  0.400000    27.953057481    17.684746833    25.166225732
    138      0   4  0.400000    26.983169626     7.816732828    24.719768246
    139      0   4  0.400000    25.588378041     1.798614830    24.387627068
    140      0   4  0.400000    15.891368382    22.015437915    24.576926957
    141      0   4  0.400000    33.523059417    15.103543832    24.664948423
    142      0   4  0.400000    33.723913240     5.499046695    24.583673274
    143      0   4  0.400000     1.955530806    22.832456486    24.887473587
    144      0   4  0.400000     1.888234130    12.264370329    24.604212980
    145      0   4  0.400000    19.683043334     8.701726548    25.393378679
    146      0   4  0.400000    19.899242873    13.783011469    25.328612298
    147      0   4  0.400000     9.907092773    19.809080061    24.572624392
    148      0   4  0.400000    10.965900468     7.782776799    25.001618358
    149      0   4  0.400000     8.068983236     1.964464865    24.672806672
    150      0   4  0.400000    17.255834501     5.825531446    24.709105715
    151      0   4  0.400000    18.310496437    24.193501267    24.768735950
    152      0   4  0.400000     8.130836492    11.906329895    24.456015957
    153      0   4  0.400000     3.390751570     3.591345532    25.251243734
    154      0   4  0.400000     1.380998810    33.826537552    24.878799766
    155      0   4  0.400000    10.119256850    22.419280158    24.376751162
    156      0   4  0.400000    25.322719721    21.537632298    24.415965869
    157      0   4  0.400000     9.886592500     4.399726564    24.791943114
    158      0   4  0.400000     1.428830863     9.494989440    24.521594023
    159      0   4  0.400000    19.411058520     3.197295342    25.363801743
    160      0   4  0.400000    27.644834220    14.307712443    25.242568271
    161      0   4  0.400000     2.610031165    17.344324603    24.947972179
    162      0   4  0.400000    16.962773641    16.835457415    24.250433361
    163      0   4  0.400000    17.133258244     1.939701830    24.406417273
    164      0   4  0.400000    32.588842476     1.965385732    24.492165377
    165      0   1 -0.550000     3.100599275     5.277791381    11.008462211
    166      0   1 -0.550000     9.153498527     5.631794569     3.200065258
    167      0   1 -0.550000     6.052450769     5.270154702     7.019412775
    168      0   1 -0.550000     2.157353179     9.090754100     6.832795455
    169      0   1 -0.550000     7.550324844     9.237557898    10.771754340
    170      0   1 -0.550000     5.182262473     9.307124051     2.720162650
    171      0   1 -0.550000     5.120760210     8.507130438    11.271810565
    172      0   1 -0.550000     2.680571929     8.695359461     3.494809624
    173      0   1 -0.550000     7.964974157     8.323816906     7.328292214
    174      0   1 -0.550000     3.067960717     5.995910367     8.461804110
    175      0   2 -0.675000     9.207884673     5.993225553     0.689558760
    176      0   1 -0.550000     5.982462929     6.114713531     4.512788678
    177      0   1 -0.550000     2.705126140     7.749502540    10.284399589
    178      0   1 -0.550000     5.590196901     7.918589206     6.396678037
    179      0   1 -0.550000     1.332020810     6.634629620     6.629177805
    180      0   1 -0.550000     6.727975569     6.745133606    10.314102362
    181      0   1 -0.550000     4.303321778     6.808702444     2.683685951
    182      0   1 -0.550000     6.829767148     6.166739798     2.001148926
    183      0   1 -0.550000     0.879932485     6.011950665     9.966792861
    184      0   1 -0.550000     3.841635407     6.037859357     5.901572436
    185      0   1 -0.550000     0.440665864     8.435995069     4.866879384
    186      0   1 -0.550000     5.942207464     8.719559682     8.789378087
    187      0   2 -0.675000     3.325094954     8.561039764     0.984453026
    188      0   3  1.100000     8.415502238     6.482176644     2.028278356
    189      0   3  1.100000     2.441076403     6.270513822     9.932400073
    190      0   3  1.100000     5.428873868     6.351308703     5.933509082
    191      0   3  1.100000     0.868443777     8.176280461     6.418036430
    192      0   3  1.100000     6.323015026     8.310356981    10.263490591
    193      0   3  1.100000     3.871835718     8.310670824     2.517918906
    194      0   3  1.100000     3.470883497     8.721965467    11.344112680
    195      0   3  1.100000     1.082499872     8.815941763     3.469614631
    196      0   3  1.100000     6.406098113     8.902698626     7.311812620
    197      0   3  1.100000     2.624915635     5.645463895     6.937209897
    198      0   3  1.100000     7.859541138     5.804088775    10.780483085
    199      0   3  1.100000     5.545531385     5.872504516     3.001299958
    200      0   4  0.400000     9.893155616     5.387414443     0.930189951
    201      0   4  0.400000     4.004772020     9.039879270     0.539935692
    202      0   1 -0.550000     3.055867302     5.491232821    22.819996113
    203      0   1 -0.550000     8.814215832     5.202053324    14.657170680
    204      0   1 -0.550000     5.616020513     5.138240790    18.879866181
    205      0   1 -0.550000     1.506068475     9.115232831    18.879343990
    206      0   1 -0.550000     7.044073514     9.176779355    22.611492385
    207      0   1 -0.550000     4.577393566     9.061951191    14.919606655
    208      0   1 -0.550000     4.607293203     8.462809957    23.277452997
    209      0   1 -0.550000     2.026484337     8.213521802    15.350487117
    210      0   1 -0.550000     7.449435785     8.432088656    19.398159299
    211      0   1 -0.550000     2.463459190     6.375891875    20.338476014
    212      0   1 -0.550000     8.332818889     6.106763010    12.273550737
    213      0   1 -0.550000     5.522012607     5.894995746    16.414369002
    214      0   1 -0.550000     2.224835568     7.868201783    22.343911178
    215      0   1 -0.550000     5.237618343     7.722862240    18.227583482
    216      0   1 -0.550000     0.865099775     6.574827420    18.279693884
    217      0   1 -0.550000     6.382679892     6.637489023    22.589867073
    218      0   1 -0.550000     3.922514215     6.590588689    14.364770835
    219      0   1 -0.550000     6.276545466     5.793488253    13.897152578
    220      0   1 -0.550000     0.554189950     5.973767794    21.875641638
    221      0   1 -0.550000     3.339827480     5.942698355    17.866466005
    222      0   1 -0.550000    -0.078116266     8.506328163    16.819195233
    223      0   1 -0.550000     5.411702596     8.214184822    20.773265145
    224      0   1 -0.550000     2.993095388     8.403739885    12.848579240
    225      0   3  1.100000     7.826701966     6.145608901    13.825827873
    226      0   3  1.100000     2.093960005     6.421641797    21.868932744
    227      0   3  1.100000     4.916308384     6.196972668    17.854154719
    228      0   3  1.100000     0.353239556     8.115675466    18.319426998
    229      0   3  1.100000     5.857587156     8.163553183    22.299095921
    230      0   3  1.100000     3.363246199     8.082374831    14.381967229
    231      0   3  1.100000     3.025132598     8.937639143    23.220002269
    232      0   3  1.100000     0.447136825     8.684620204    15.312447727
    233      0   3  1.100000     5.915849209     8.661361512    19.358622250
    234      0   3  1.100000     2.087916658     5.787839594    18.856612176
    235      0   3  0.725000     7.667450297     5.800497244    22.823123436
    236      0   3  1.100000     5.059057333     5.599295689    14.851669397
    237      0   1 -0.550000     3.197513115    10.276658467    10.940132825
    238      0   1 -0.550000     9.251648665    10.568941063     2.997365568
    239      0   1 -0.550000     6.250087153    10.376596745     6.697571252
    240      0   1 -0.550000     2.245955425    14.116784732     6.899495663
    241      0   1 -0.550000     7.621815556    14.195208122    10.793900872
    242      0   1 -0.550000     5.180859660    14.231891405     2.685053790
    243      0   1 -0.550000     5.101951660    13.642688193    11.393160790
    244      0   1 -0.550000     2.728811682    13.716857033     3.270979636
    245      0   1 -0.550000     7.838027020    13.228638589     7.352392595
    246      0   1 -0.550000     3.031880837    10.909693729     8.329641228
    247      0   2 -0.900000     9.170535391    11.573659174     0.513552997
    248      0   1 -0.550000     5.845426786    11.377095639     4.289564596
    249      0   1 -0.550000     2.715348557    12.701189743    10.276648254
    250      0   1 -0.550000     5.455298828    12.846041894     6.507482526
    251      0   1 -0.550000     1.380628192    11.618118909     6.460916279
    252      0   1 -0.550000     6.754835113    11.709199949    10.526188632
    253      0   1 -0.550000     4.373743703    11.849273785     2.202682421
    254      0   1 -0.550000     6.881614988    11.136106662     1.904433648
    255      0   1 -0.550000     0.967051522    10.835350300     9.865960475
    256      0   1 -0.550000     3.792727600    11.054684095     5.874599518
    257      0   1 -0.550000     0.651762012    13.392598802     4.891409749
    258      0   1 -0.550000     5.887820322    13.619882599     8.900697002
    259      0   2 -0.900000     3.405806500    13.762363259     0.779004735
    260      0   3  0.725000     8.421982658    11.593849060     1.990583655
    261      0   3  1.100000     2.479594779    11.211600503     9.846158950
    262      0   3  1.100000     5.328485600    11.377095639     5.859448697
    263      0   3  1.100000     1.001333955    13.217723704     6.420147033
    264      0   3  1.100000     6.359729110    13.259463811    10.422946208
    265      0   3  0.725000     3.949607230    13.420633730     2.312366577
    266      0   3  1.100000     3.451374038    13.656636549    11.367300683
    267      0   3  1.100000     1.102828096    13.829454000     3.424976269
    268      0   3  1.100000     6.393637566    13.800371542     7.413360834
    269      0   3  1.100000     2.572399740    10.645132218     6.849470628
    270      0   3  1.100000     7.997880036    10.745105828    10.884245758
    271      0   3  1.100000     5.573225747    10.881343918     2.791734862
    272      0   1 -0.550000     2.981536366    10.328335557    22.553325343
    273      0   1 -0.550000     8.703237269    10.197641684    14.834668097
    274      0   1 -0.550000     5.512491597    10.167444148    19.057298567
    275      0   1 -0.550000     1.590411256    14.136521520    18.864623636
    276      0   1 -0.550000     6.890501298    14.103185552    22.922392160
    277      0   1 -0.550000     4.660276536    14.036269400    14.755592056
    278      0   1 -0.550000     4.384634671    13.460943877    23.343697501
    279      0   1 -0.550000     2.105378398    13.247049338    15.355568289
    280      0   1 -0.550000     7.391741229    13.348522538    19.416789292
    281      0   1 -0.550000     2.519850244    11.178857927    20.168728961
    282      0   1 -0.550000     8.506936993    11.049628309    12.391122357
    283      0   1 -0.550000     5.564272731    10.847624479    16.487582525
    284      0   1 -0.550000     2.356656710    12.824525968    22.144201226
    285      0   1 -0.550000     5.044758891    12.603309113    18.313174294
    286      0   1 -0.550000     0.977107051    11.659440213    18.223155535
    287      0   1 -0.550000     6.223160903    11.668611293    22.374850516
    288      0   1 -0.550000     3.875844538    11.500396529    14.577833544
    289      0   1 -0.550000     6.403525957    10.792703996    13.970432103
    290      0   1 -0.550000     0.472499471    11.046873348    21.814933524
    291      0   1 -0.550000     3.339326689    10.538987742    17.872196519
    292      0   1 -0.550000     0.023508113    13.701863226    16.785062570
    293      0   1 -0.550000     5.160681649    13.526395774    20.858007638
    294      0   1 -0.550000     2.912483901    13.347476047    12.826497739
    295      0   3  1.100000     7.936677949    11.270356732    13.879435935
    296      0   3  1.100000     2.049956072    11.310876800    21.614247133
    297      0   3  1.100000     4.880128943    11.007365476    17.902421484
    298      0   3  1.100000     0.428415515    13.172252811    18.291613042
    299      0   3  1.100000     5.661854875    13.180098891    22.331533890
    300      0   3  1.100000     3.393145338    13.025588268    14.413037600
    301      0   3  1.100000     2.834946108    13.711557032    23.336726541
    302      0   3  1.100000     0.587887711    13.716543190    15.288998628
    303      0   3  1.100000     5.812754875    13.603458831    19.374645170
    304      0   3  1.100000     2.048462658    10.649980160    18.792842741
    305      0   3  1.100000     7.394714118    10.710967585    22.780002874
    306      0   3  1.100000     5.156438860    10.589653676    14.964485972
    307      0   1 -0.550000     3.012738757    15.151666084    11.070733016
    308      0   1 -0.550000     9.324308222    15.532135504     3.192320475
    309      0   1 -0.550000     6.373526261    15.284730409     6.876437237
    310      0   1 -0.550000     2.264138982    19.034577908     6.874874061
    311      0   1 -0.550000     7.412420032    19.128240360    11.086365748
    312      0   1 -0.550000     5.171538767    19.230688344     2.814786979
    313      0   1 -0.550000     4.869171268    18.355094891    11.392574539
    314      0   1 -0.550000     2.808387487    18.261085340     3.348811833
    315      0   1 -0.550000     8.013346824    18.292956014     7.534776091
    316      0   1 -0.550000     3.039330731    15.984576862     8.579766887
    317      0   2 -0.675000     9.277538486    16.501181489     0.807723608
    318      0   1 -0.550000     6.032339463    16.205480912     4.390096577
    319      0   1 -0.550000     2.508825864    17.664837283    10.423402397
    320      0   1 -0.550000     5.684271015    17.849998541     6.437590449
    321      0   1 -0.550000     1.472634675    16.482596151     6.502063095
    322      0   1 -0.550000     6.682475235    16.662561330    10.526969977
    323      0   1 -0.550000     4.686300764    16.773761590     2.260849707
    324      0   1 -0.550000     7.085464969    15.875434249     2.015921936
    325      0   1 -0.550000     0.856126599    15.826127610     9.939305031
    326      0   1 -0.550000     3.971489226    15.825499924     6.021887015
    327      0   1 -0.550000     0.663962331    18.398962273     4.928453287
    328      0   1 -0.550000     5.894267887    18.577009059     8.941146430
    329      0   2 -0.675000     3.602942092    18.646472329     0.888942828
    330      0   3  1.100000     8.583306189    16.522556082     2.209678132
    331      0   3  1.100000     2.388126174    16.111714538    10.039485164
    332      0   3  1.100000     5.521745286    16.313091721     5.896556781
    333      0   3  1.100000     1.011493027    18.052735018     6.408259421
    334      0   3  1.100000     6.195900626    18.194866501    10.460790504
    335      0   3  1.100000     4.035630848    18.243231610     2.374839270
    336      0   3  1.100000     3.278258512    18.618504950    11.451457895
    337      0   3  1.100000     1.190251043    18.712306658     3.495141817
    338      0   3  1.100000     6.507822986    18.758370943     7.549757540
    339      0   3  1.100000     2.682877013    15.618264681     7.025730996
    340      0   3  1.100000     7.917468666    15.773507951    10.968858189
    341      0   3  1.100000     5.747510616    15.725874450     2.862252258
    342      0   4  0.400000     3.048097464    19.393296988     0.918384315
    343      0   4  0.400000    10.187368509    16.728540587     0.945366009
    344      0   1 -0.550000     2.483403233    15.275525034    23.152715323
    345      0   1 -0.550000     8.657569673    15.281871526    15.049815687
    346      0   1 -0.550000     5.537713861    15.088969149    18.968712436
    347      0   1 -0.550000     1.653754649    19.001659704    18.906635755
    348      0   1 -0.550000     7.221799208    19.128518870    22.656241640
    349      0   1 -0.550000     4.543385051    19.123601300    14.669742091
    350      0   1 -0.550000     4.693650350    18.607522517    23.387468375
    351      0   1 -0.550000     2.143609541    18.441574283    15.298442716
    352      0   1 -0.550000     7.565357547    18.288073777    19.387476706
    353      0   1 -0.550000     2.593980565    15.845305301    20.609576673
    354      0   1 -0.550000     8.307930651    15.981997528    12.518270068
    355      0   1 -0.550000     5.482959838    15.785991013    16.557474602
    356      0   1 -0.550000     2.423905131    17.856171483    22.314860658
    357      0   1 -0.550000     5.280512670    17.571979183    18.427099311
    358      0   1 -0.550000     0.851509710    16.583196410    18.833292169
    359      0   1 -0.550000     6.380408410    16.708590281    23.183916727
    360      0   1 -0.550000     3.838161229    16.553591226    14.789528655
    361      0   1 -0.550000     6.319072912    16.138391211    14.111909011
    362      0   1 -0.550000     0.329590603    16.199449303    22.008650896
    363      0   1 -0.550000     3.321353455    15.951207639    18.114702847
    364      0   1 -0.550000     0.113216232    18.275765304    16.885829925
    365      0   1 -0.550000     5.517168968    18.132798291    21.041302541
    366      0   1 -0.550000     2.831672296    18.229179333    12.927720312
    367      0   3  1.100000     7.870799487    16.279685086    14.031139246
    368      0   3  1.100000     1.982527196    16.312846466    21.997838240
    369      0   3  1.100000     4.909727407    16.102473830    18.019015694
    370      0   3  1.100000     0.421112722    18.074041023    18.474387695
    371      0   3  1.100000     5.952997876    18.160204493    22.530463467
    372      0   3  1.100000     3.320785460    18.046842664    14.436421667
    373      0   3  1.100000     3.068561816    18.805235424    23.376265532
    374      0   3  1.100000     0.569189673    18.640056210    15.407417595
    375      0   3  1.100000     5.973142036    18.484044959    19.537487264
    376      0   3  1.100000     2.096515485    15.665723593    19.134289725
    377      0   3  1.100000     7.518554956    15.592460949    23.143401297