LAMMPS 2005 data file for Q3_14pct_ionized

   2184 atoms
   2784 bonds
   5416 angles

   5 atom types
   3 bond types
   4 angle types

     0.000000000    33.407100000 xlo xhi
     0.000000000    34.870300000 ylo yhi
     0.000000000    65.136900000 zlo zhi

Masses

   1  15.999400
   2  15.999400
   3  28.086000
   4   1.008000
   5  22.989771

Pair Coeffs

   1   0.0400000000   3.6000000000 
   2   0.1200000000   3.6000000000 
   3   0.0800000000   4.2000000000 
   4   0.0130000000   1.0980000000 
   5   0.0800000000   3.3000000000 

Bond Coeffs

  1     1.6800   285.0000     0.0000     0.0000 
  2     1.6800   285.0000     0.0000     0.0000 
  3     0.9450   495.0000     0.0000     0.0000 

Angle Coeffs

  1   149.0000   100.0000     0.0000     0.0000 
  2   115.0000    50.0000     0.0000     0.0000 
  3   109.5000   100.0000     0.0000     0.0000 
  4   109.5000   100.0000     0.0000     0.0000 

Atoms

      1      0   1 -0.550000     3.387155506     0.731811251    10.975176896
      2      0   1 -0.550000     9.264566945     0.675342206     2.888749817
      3      0   1 -0.550000     6.213930363     0.591991763     7.024949651
      4      0   1 -0.550000     2.235251882     4.553481170     6.817032660
      5      0   1 -0.550000     7.653876412     4.506685277    10.868873151
      6      0   1 -0.550000     5.188232396     4.534999754     2.766579179
      7      0   1 -0.550000     5.140326670     3.921979792    11.506107427
      8      0   1 -0.550000     2.671842430     3.946214827     3.349013721
      9      0   1 -0.550000     8.038425474     3.760251294     7.465665845
     10      0   1 -0.550000     3.135499609     1.444232346     8.449949013
     11      0   2 -0.675000     8.855797699     1.605866535     0.418968372
     12      0   1 -0.550000     6.026817568     1.448193578     4.523100011
     13      0   1 -0.550000     2.863632597     3.214287258    10.359502900
     14      0   1 -0.550000     5.546222588     3.035541860     6.520203897
     15      0   1 -0.550000     1.553356178     2.053932534     6.377325906
     16      0   1 -0.550000     6.773632962     1.976618247    10.548009038
     17      0   1 -0.550000     4.430024744     2.115196131     2.581420936
     18      0   1 -0.550000     6.824779396     1.322915059     2.039266936
     19      0   1 -0.550000     1.065218214     1.340458323    10.056225368
     20      0   1 -0.550000     3.878173020     1.117888150     5.991383484
     21      0   1 -0.550000     0.524537724     3.907508710     4.885554026
     22      0   1 -0.550000     5.893088838     3.974215460     9.072788092
     23      0   2 -0.900000     3.433157130     3.997264750     0.850811654
     24      0   3  1.100000     8.370225171     1.758793913     1.976149269
     25      0   3  1.100000     2.593970610     1.645263211     9.950899033
     26      0   3  1.100000     5.426391567     1.491641896     5.997694911
     27      0   3  1.100000     1.014108742     3.537883508     6.412864506
     28      0   3  1.100000     6.397536125     3.602009886    10.562860425
     29      0   3  0.725000     3.963628146     3.650967867     2.360965050
     30      0   3  1.100000     3.532576670     4.178032722    11.452109178
     31      0   3  1.100000     1.115255540     4.212414661     3.360725409
     32      0   3  1.100000     6.399640842     4.055254038     7.550995075
     33      0   3  1.100000     2.677388222     1.015372876     6.954080649
     34      0   3  1.100000     7.987680271     0.990444165    10.897077294
     35      0   3  1.100000     5.594362282     1.128220294     2.976749696
     36      0   4  0.400000     8.953338173     0.687447323     0.200682431
     37      0   1 -0.550000     2.795782828     0.749026642    22.887413121
     38      0   1 -0.550000     8.637047431     0.599718983    15.058153274
     39      0   1 -0.550000     5.578427060     0.570679003    19.174348966
     40      0   1 -0.550000     1.631779316     4.497618638    18.885596694
     41      0   1 -0.550000     7.152636481     4.630997845    22.834066155
     42      0   1 -0.550000     4.480769947     4.623221392    14.837860451
     43      0   1 -0.550000     4.678406829     3.944296954    23.428570057
     44      0   1 -0.550000     2.138865714     3.808999874    15.482454905
     45      0   1 -0.550000     7.374126167     3.534152203    19.255509888
     46      0   1 -0.550000     2.503537688     1.360892425    20.486075564
     47      0   1 -0.550000     8.468508721     1.099640557    12.454045415
     48      0   1 -0.550000     5.512682009     1.364445505    16.660717026
     49      0   1 -0.550000     2.342157905     3.236429832    22.343651053
     50      0   1 -0.550000     4.888069674     3.067692343    18.650453455
     51      0   1 -0.550000     1.015715656     2.054396284    18.314280795
     52      0   1 -0.550000     6.349529842     2.231502579    22.319028480
     53      0   1 -0.550000     3.950298931     2.124436839    14.659905874
     54      0   1 -0.550000     6.425597867     1.351756419    14.095690027
     55      0   1 -0.550000     0.478666400     1.420569400    22.080431791
     56      0   1 -0.550000     3.318904507     1.048876418    18.108840330
     57      0   1 -0.550000    -0.046934158     4.059299186    16.957804943
     58      0   1 -0.550000     5.495076652     4.086881535    20.925554708
     59      0   1 -0.550000     2.886349411     3.847950206    12.914041428
     60      0   3  1.100000     8.008158956     1.559726387    13.944376902
     61      0   3  1.100000     2.049190948     1.767546189    21.934198868
     62      0   3  1.100000     4.801010622     1.525256894    18.137824848
     63      0   3  1.100000     0.406433586     3.596291080    18.409185632
     64      0   3  1.100000     5.909157472     3.791774350    22.389180682
     65      0   3  1.100000     3.329428095     3.581611116    14.472442177
     66      0   3  1.100000     3.104865462     4.242298355    23.383364613
     67      0   3  1.100000     0.639979228     4.243344325    15.452492006
     68      0   3  1.100000     5.833490678     4.092356124    19.422585808
     69      0   3  1.100000     2.018339509     1.028470374    18.970145065
     70      0   3  1.100000     7.584890653     1.309639855    22.788210399
     71      0   3  1.100000     5.170426424     1.125632906    15.116320317
     72      0   2 -0.675000     8.083257755     1.685576735    24.286683408
     73      0   2 -0.675000     2.478348527     4.105083921    24.885423076
     74      0   2 -0.900000     8.716823603     6.193291670    24.319513505
     75      0   2 -0.675000     2.098352884     9.366942264    24.650017771
     76      0   2 -0.675000     7.888394142    11.721384661    24.463465482
     77      0   2 -0.675000     2.125542970    13.964068740    24.701671984
     78      0   2 -0.675000     7.607441201    16.551897210    24.597973371
     79      0   2 -0.675000     2.348872791    18.770625282    24.859237813
     80      0   2 -0.900000     8.253601505    21.235433450    24.670144453
     81      0   2 -0.675000     2.434551929    23.759867671    24.847902966
     82      0   2 -0.675000     8.136542757    26.181365476    24.466462743
     83      0   2 -0.900000     2.217542733    28.837262589    24.924243812
     84      0   2 -0.675000     8.335682511    31.045355326    24.499747087
     85      0   2 -0.675000     2.423627856    33.858296314    24.725446238
     86      0   2 -0.675000    16.265526312     1.693101697    24.305053276
     87      0   2 -0.675000    10.416176118     4.361938607    24.531728866
     88      0   2 -0.675000    16.181907090     6.556919037    24.333647607
     89      0   2 -0.675000    10.870679666     8.354518367    24.601686945
     90      0   2 -0.675000    16.216183922    10.818697809    24.488804369
     91      0   2 -0.675000    10.882873887    13.368448369    24.981498476
     92      0   2 -0.675000    16.265994248    16.586976982    24.418520163
     93      0   2 -0.675000    10.842651277    18.587521672    24.841976388
     94      0   2 -0.675000    16.350780325    21.189090655    24.526842788
     95      0   2 -0.675000    10.536776247    23.725380251    24.829731103
     96      0   2 -0.675000    16.244078900    26.290927932    24.617905929
     97      0   2 -0.675000    10.819500377    28.955508733    24.949386634
     98      0   2 -0.675000    16.444186385    31.280590164    24.358790430
     99      0   2 -0.675000    10.629113023    33.782404940    24.695287275
    100      0   2 -0.675000    24.744114043     1.926028436    24.285054716
    101      0   2 -0.675000    18.901479232     4.269218204    24.827646221
    102      0   2 -0.675000    24.602602138     6.669759700    24.491409501
    103      0   2 -0.675000    18.676115133     9.299886856    24.729614061
    104      0   2 -0.675000    24.753468786    11.512825457    24.663371498
    105      0   2 -0.675000    19.097578395    13.957756542    24.738930028
    106      0   2 -0.675000    24.674694198    16.578713137    24.466982992
    107      0   2 -0.900000    19.079974034    19.214767462    24.890373215
    108      0   2 -0.675000    24.722598929    21.680132649    24.565535402
    109      0   2 -0.675000    19.200639874    23.730540997    24.901379994
    110      0   2 -0.675000    24.877340487    26.377232736    24.465550364
    111      0   2 -0.675000    19.266318219    29.213024361    25.061422834
    112      0   2 -0.675000    24.527134964    31.503898959    24.667083132
    113      0   2 -0.900000    18.994785732    34.169757866    24.874218292
    114      0   2 -0.900000    26.970730219     3.309448260    24.483332039
    115      0   2 -0.675000    27.453797795     8.752841516    24.881643500
    116      0   2 -0.675000    27.275336843    13.731901667    24.956031468
    117      0   2 -0.675000    27.572325066    18.967294817    24.831749983
    118      0   2 -0.900000    27.135427870    23.810604271    24.780421897
    119      0   2 -0.675000    27.422862227    28.742903862    24.898774862
    120      0   2 -0.675000    27.692925195    34.059585131    24.923331433
    121      0   2 -0.675000    32.978112212     1.208952043    24.569379040
    122      0   2 -0.675000    33.042050046     6.400979492    24.532967372
    123      0   2 -0.900000    33.598335030    11.247706926    24.445683807
    124      0   2 -0.675000    33.070907155    16.366806619    24.500137275
    125      0   2 -0.675000    33.096674018    21.356919870    24.490433062
    126      0   2 -0.675000    33.188483433    26.229416742    24.575175555
    127      0   2 -0.675000    33.082105207    31.170329354    24.548077913
    128      0   4  0.400000    34.117454678    25.918154629    24.661126907
    129      0   4  0.400000    26.741403619    34.088942155    24.937872732
    130      0   4  0.400000    10.117089305    34.569254592    24.853772288
    131      0   4  0.400000    33.679939289    30.485185822    24.672135571
    132      0   4  0.400000    16.726017786    30.477155246    24.737558570
    133      0   4  0.400000    27.997482753    28.160214573    25.331340919
    134      0   4  0.400000    11.352864921    28.317133178    25.382838274
    135      0   4  0.400000     8.614286255    25.390343449    24.654030067
    136      0   4  0.400000    24.496227452    30.694120080    25.138766072
    137      0   4  0.400000    25.540749703    25.669100903    24.660162531
    138      0   4  0.400000    27.501187951    18.049309500    25.037012929
    139      0   4  0.400000    24.945445324    15.774263868    24.895591453
    140      0   4  0.400000    27.993485032     9.207962085    25.509632936
    141      0   4  0.400000    25.633881841     2.270050131    24.206356035
    142      0   4  0.400000    16.933302988    20.488027261    24.794207410
    143      0   4  0.400000    33.932418964    15.930958265    24.715820909
    144      0   4  0.400000    32.977307101     7.330970542    24.590078267
    145      0   4  0.400000     2.748128138    22.919702985    25.108132925
    146      0   4  0.400000     2.491384836    13.165976097    25.047350554
    147      0   4  0.400000    17.919470740     9.915425434    24.658929115
    148      0   4  0.400000    18.872516676    13.033397798    24.712960050
    149      0   4  0.400000    11.635828267    18.354931335    25.309609554
    150      0   4  0.400000    10.721180069     7.419652378    24.431066303
    151      0   4  0.400000     8.282512319     2.600834444    24.304697483
    152      0   4  0.400000    16.466611658     7.443026073    24.268688877
    153      0   4  0.400000    19.785480332    23.045003207    25.169403294
    154      0   4  0.400000     7.287672768    11.326627825    25.056857994
    155      0   4  0.400000     2.665518899     4.900658385    25.342294152
    156      0   4  0.400000     2.248586125    34.705582894    25.076512894
    157      0   4  0.400000     9.891056715    23.035874546    24.716919551
    158      0   4  0.400000    19.894017191    28.760443265    25.599280063
    159      0   4  0.400000    25.504143903    22.236286626    24.463767940
    160      0   4  0.400000     7.511868822    15.758950618    25.091214789
    161      0   4  0.400000     9.746786321     5.033798967    24.395253637
    162      0   4  0.400000     1.277406383     9.854468472    24.479137823
    163      0   4  0.400000    24.571745334     5.870620701    24.933035058
    164      0   4  0.400000    18.881827010     5.100749079    25.291186553
    165      0   4  0.400000    26.675075815    13.017394200    24.808410948
    166      0   4  0.400000     2.057326694    17.882675702    24.815982016
    167      0   4  0.400000    10.217906051    12.743077759    24.777245585
    168      0   4  0.400000    16.308952063    15.828095319    24.964279037
    169      0   4  0.400000    33.081476131    20.529665881    24.931957180
    170      0   4  0.400000    16.602043192     2.605055720    24.249743624
    171      0   4  0.400000    33.453639606     2.018798892    24.663163195
    172      0   4  0.400000     9.000048146    31.718052936    24.525586799
    173      0   4  0.400000    16.461952393    25.438136836    24.981213276
    174      0   4  0.400000    15.410295124    10.906168239    24.967130107
    175      0   1 -0.550000     3.220487545     5.718985729    11.031911310
    176      0   1 -0.550000     9.246025715     5.685859163     2.978228429
    177      0   1 -0.550000     6.143141058     5.613886705     7.086764266
    178      0   1 -0.550000     2.089740615     9.517581808     6.969192161
    179      0   1 -0.550000     7.484536237     9.407322038    10.947167846
    180      0   1 -0.550000     5.073245014     9.551650423     2.937153196
    181      0   1 -0.550000     5.085839470     8.554987275    11.395439795
    182      0   1 -0.550000     2.564639218     8.741857004     3.612166738
    183      0   1 -0.550000     8.123914451     8.735754728     7.318912186
    184      0   1 -0.550000     3.003474864     6.439545834     8.499258218
    185      0   2 -0.675000     8.908413652     6.516958067     0.490418317
    186      0   1 -0.550000     5.989835665     6.221606667     4.544471022
    187      0   1 -0.550000     2.656007515     8.176156699    10.576148150
    188      0   1 -0.550000     5.799415457     8.114435587     6.382217808
    189      0   1 -0.550000     1.457618152     6.994925166     6.506192578
    190      0   1 -0.550000     6.863632048     6.954615020    10.424509870
    191      0   1 -0.550000     4.306385020     6.938539908     2.743735502
    192      0   1 -0.550000     6.849634281     6.317290395     2.124231457
    193      0   1 -0.550000     0.835380719     6.245806369    10.044045115
    194      0   1 -0.550000     3.886725303     6.302401028     6.036764123
    195      0   1 -0.550000     0.433189338     8.851943225     4.994645378
    196      0   1 -0.550000     6.014757256     8.861287855     8.869040379
    197      0   2 -0.675000     3.395106441     8.735824356     1.167090458
    198      0   3  1.100000     8.448531823     6.591824222     2.081970618
    199      0   3  1.100000     2.401545742     6.621080748    10.038833881
    200      0   3  1.100000     5.467415642     6.547294859     6.009601936
    201      0   3  1.100000     0.891882161     8.534622800     6.411503218
    202      0   3  1.100000     6.336534653     8.405219634    10.419363666
    203      0   3  1.100000     3.840021775     8.443855603     2.718052046
    204      0   3  1.100000     3.561306465     9.137565486    11.414134820
    205      0   3  1.100000     0.998053300     9.104543361     3.527234732
    206      0   3  1.100000     6.586219493     9.078495414     7.349396306
    207      0   3  1.100000     2.653735784     6.083066714     6.989906065
    208      0   3  1.100000     8.108647780     6.029366270    10.816242499
    209      0   3  1.100000     5.563594474     6.037561007     3.050589023
    210      0   4  0.400000     8.805911207     5.627933004     0.215442122
    211      0   4  0.400000     3.065411722     7.918239190     0.840995912
    212      0   1 -0.550000     2.797119184     5.717556288    22.889692126
    213      0   1 -0.550000     8.815708500     5.634076592    14.846458163
    214      0   1 -0.550000     5.826742439     5.539090179    18.725685858
    215      0   1 -0.550000     1.654091913     9.524277476    18.710769440
    216      0   1 -0.550000     7.077470478     9.685517022    22.793354660
    217      0   1 -0.550000     4.561682109     9.472424758    14.968329609
    218      0   1 -0.550000     4.519388631     8.902261021    23.308132210
    219      0   1 -0.550000     2.143659572     8.780667562    15.375956066
    220      0   1 -0.550000     7.612351545     8.677975362    19.283583970
    221      0   1 -0.550000     2.585485282     6.451297288    20.394950303
    222      0   1 -0.550000     8.540535070     6.436930647    12.281888324
    223      0   1 -0.550000     5.451714388     6.542622544    16.276864823
    224      0   1 -0.550000     2.129378056     8.166322599    22.292973279
    225      0   1 -0.550000     5.170259162     8.064327713    18.387820445
    226      0   1 -0.550000     1.003522057     7.037432215    18.286924969
    227      0   1 -0.550000     6.437357007     7.149749113    22.924411040
    228      0   1 -0.550000     3.870422701     7.093573257    14.271103533
    229      0   1 -0.550000     6.351801822     6.257104204    13.889141118
    230      0   1 -0.550000     0.451877296     6.212958832    21.970480473
    231      0   1 -0.550000     3.479258812     6.212191371    17.873044837
    232      0   1 -0.550000     0.020481338     8.910106062    16.869805064
    233      0   1 -0.550000     5.529519253     8.548466196    20.856184822
    234      0   1 -0.550000     2.981025371     9.078076610    12.965499577
    235      0   3  1.100000     7.957781132     6.550537732    13.822441395
    236      0   3  1.100000     1.957414948     6.646152352    21.860335033
    237      0   3  1.100000     5.007967401     6.578538885    17.812466786
    238      0   3  1.100000     0.436089050     8.543724253    18.351474779
    239      0   3  1.100000     5.862187121     8.612871602    22.465325464
    240      0   3  1.100000     3.386520805     8.574793692    14.432709063
    241      0   3  1.100000     2.918253209     9.261843240    23.232833805
    242      0   3  1.100000     0.572687374     9.176515299    15.372178431
    243      0   3  1.100000     6.016995883     8.965899486    19.419198360
    244      0   3  1.100000     2.159297356     6.043419068    18.827299589
    245      0   3  0.725000     7.731214337     6.133698353    22.945189976
    246      0   3  1.100000     5.034927004     6.147506934    14.815648887
    247      0   1 -0.550000     3.352578995    10.683435543    11.008787367
    248      0   1 -0.550000     9.294732907    10.608534056     2.788315384
    249      0   1 -0.550000     6.349329725    10.542838982     6.951214422
    250      0   1 -0.550000     2.108588741    14.433388003     6.778536596
    251      0   1 -0.550000     7.599323004    14.447963006    10.783153248
    252      0   1 -0.550000     5.105482838    14.592570941     2.719387371
    253      0   1 -0.550000     5.079458610    13.734412413    11.358768003
    254      0   1 -0.550000     2.588458420    14.019023517     3.322398717
    255      0   1 -0.550000     8.004016226    13.634613390     7.369654021
    256      0   1 -0.550000     2.998931402    11.457346915     8.517040864
    257      0   2 -0.900000     8.805686699    11.514778144     0.295242777
    258      0   1 -0.550000     5.918812392    11.466239486     4.494947796
    259      0   1 -0.550000     2.715705983    13.144198043    10.495508448
    260      0   1 -0.550000     5.569708012    13.041051706     6.582344154
    261      0   1 -0.550000     1.441001435    11.952574871     6.510178896
    262      0   1 -0.550000     6.831828309    11.983993486    10.384385598
    263      0   1 -0.550000     4.256441282    12.095125158     2.530106196
    264      0   1 -0.550000     6.823844022    11.415397925     1.980611188
    265      0   1 -0.550000     0.963988035    11.225320137    10.067429182
    266      0   1 -0.550000     3.954575072    11.110143836     6.085688480
    267      0   1 -0.550000     0.421897761    13.663172083     4.827601975
    268      0   1 -0.550000     5.910059494    13.921561691     8.898677152
    269      0   2 -0.675000     3.507087084    13.919225533     0.855175844
    270      0   3  0.725000     8.433732093    11.649621606     1.892383215
    271      0   3  1.100000     2.469462217    11.618517873    10.006134817
    272      0   3  1.100000     5.467916434    11.588493886     6.012820011
    273      0   3  1.100000     0.974157187    13.436864110     6.356058751
    274      0   3  1.100000     6.333160534    13.513160225    10.367189204
    275      0   3  1.100000     3.874999018    13.695427267     2.396399551
    276      0   3  1.100000     3.479158753    14.085277689    11.520437594
    277      0   3  1.100000     0.958960333    14.155088057     3.372007115
    278      0   3  1.100000     6.458036307    14.073490902     7.421698421
    279      0   3  1.100000     2.628713885    11.025966307     7.035111024
    280      0   3  1.100000     7.953538841    10.966721647    10.949577884
    281      0   3  1.100000     5.519062868    11.117501485     2.974027120
    282      0   4  0.400000     3.797423714    13.148426965     0.400765792
    283      0   1 -0.550000     2.857652719    10.764160797    22.602244361
    284      0   1 -0.550000     8.630165781    10.559785476    14.947355580
    285      0   1 -0.550000     5.684662042    10.485755891    19.128819337
    286      0   1 -0.550000     1.590381141    14.504104568    18.956271087
    287      0   1 -0.550000     6.799189752    14.644806090    23.050191155
    288      0   1 -0.550000     4.543876136    14.513031433    14.927488052
    289      0   1 -0.550000     4.454746217    13.870476954    23.400626038
    290      0   1 -0.550000     2.094915294    13.742816552    15.413605269
    291      0   1 -0.550000     7.483668065    13.761646105    19.429750891
    292      0   1 -0.550000     2.425999646    11.419966318    20.207355573
    293      0   1 -0.550000     8.312463910    11.422965496    12.457366861
    294      0   1 -0.550000     5.515120753    11.399810726    16.545163315
    295      0   1 -0.550000     2.285616265    13.325244006    22.100428411
    296      0   1 -0.550000     5.213855394    13.036483313    18.489240053
    297      0   1 -0.550000     0.951988206    12.032637105    18.263278836
    298      0   1 -0.550000     6.235277717    12.137004521    22.525837513
    299      0   1 -0.550000     3.793986799    11.893121328    14.673389664
    300      0   1 -0.550000     6.233573732    11.259876145    14.025342731
    301      0   1 -0.550000     0.407619606    11.361139423    21.914724440
    302      0   1 -0.550000     3.403057376    11.182604206    17.926195739
    303      0   1 -0.550000     0.001790083    14.153100037    16.926475417
    304      0   1 -0.550000     5.298509054    13.953048894    20.946137579
    305      0   1 -0.550000     2.958308308    13.791878975    12.992922375
    306      0   3  1.100000     7.786435799    11.564433959    13.966719499
    307      0   3  1.100000     1.956713541    11.743981372    21.665185032
    308      0   3  1.100000     4.988090562    11.496959748    18.057056054
    309      0   3  1.100000     0.458391691    13.570835670    18.397982789
    310      0   3  1.100000     5.695285192    13.638728685    22.482979018
    311      0   3  1.100000     3.385318109    13.498863732    14.514846425
    312      0   3  1.100000     2.883275966    14.193515145    23.313474477
    313      0   3  1.100000     0.527998710    14.227687682    15.399796323
    314      0   3  1.100000     5.910794752    14.096157240    19.433334403
    315      0   3  1.100000     2.044129768    11.045041116    18.778968764
    316      0   3  1.100000     7.429547747    11.238326963    22.869239317
    317      0   3  1.100000     5.059247744    11.044308468    15.040826818
    318      0   1 -0.550000     3.191523283    15.637145061    11.087538252
    319      0   1 -0.550000     9.174501153    15.628323157     3.015551747
    320      0   1 -0.550000     6.303862245    15.576017341     6.887119831
    321      0   1 -0.550000     2.131589553    19.539863300     6.950237497
    322      0   1 -0.550000     7.628220560    19.413423977    10.896622076
    323      0   1 -0.550000     5.280068381    19.458093635     2.711141022
    324      0   1 -0.550000     5.089881643    18.926915043    11.500179879
    325      0   1 -0.550000     2.868343073    18.847897222     3.366313970
    326      0   1 -0.550000     8.175261002    18.684634322     7.412448941
    327      0   1 -0.550000     3.108640314    16.246816670     8.473659207
    328      0   2 -0.675000     9.233397409    16.283640247     0.559714861
    329      0   1 -0.550000     6.144243197    16.397875018     4.419401884
    330      0   1 -0.550000     2.895870670    18.200390878    10.339440279
    331      0   1 -0.550000     5.754883352    18.086016852     6.429344100
    332      0   1 -0.550000     1.496256748    17.024355945     6.494253037
    333      0   1 -0.550000     6.810180281    16.954406321    10.787387072
    334      0   1 -0.550000     4.563152125    17.031329083     2.484432188
    335      0   1 -0.550000     6.961815042    16.324579119     1.929706776
    336      0   1 -0.550000     0.908772795    16.353870459    10.054987833
    337      0   1 -0.550000     3.918428486    16.248003454     5.909232533
    338      0   1 -0.550000     0.641993719    19.005720865     4.841964657
    339      0   1 -0.550000     6.012753095    18.684287224     9.030123719
    340      0   2 -0.675000     3.400885454    18.731326293     0.878872632
    341      0   3  1.100000     8.527606090    16.606399928     2.004073512
    342      0   3  1.100000     2.462580567    16.609748282    10.012713648
    343      0   3  1.100000     5.550599286    16.576376980     5.884630344
    344      0   3  1.100000     1.018495147    18.590520849     6.368864566
    345      0   3  1.100000     6.362525528    18.489710670    10.606111049
    346      0   3  1.100000     4.049283887    18.442112502     2.343762347
    347      0   3  1.100000     3.512298600    19.175225296    11.429116269
    348      0   3  1.100000     1.293712758    19.218708169     3.385027922
    349      0   3  1.100000     6.565606899    18.981904115     7.528327322
    350      0   3  1.100000     2.642043350    15.978595040     6.932324789
    351      0   3  1.100000     8.046075735    15.980094629    11.030542742
    352      0   3  1.100000     5.713024458    16.082020927     2.913130707
    353      0   4  0.400000     3.219754083    19.645809284     0.794449358
    354      0   4  0.400000     9.520996223    17.125765240     0.216606732
    355      0   1 -0.550000     2.827252291    15.801140608    22.899788468
    356      0   1 -0.550000     8.535456468    15.516215661    15.210312775
    357      0   1 -0.550000     5.727823691    15.611341329    18.987992741
    358      0   1 -0.550000     1.495234506    19.417678527    19.005580293
    359      0   1 -0.550000     7.094408279    19.615636690    23.018077372
    360      0   1 -0.550000     4.576648603    19.459627517    14.790506065
    361      0   1 -0.550000     4.595824036    18.828962707    23.418669779
    362      0   1 -0.550000     2.072104893    18.699908717    15.350618150
    363      0   1 -0.550000     7.510059673    18.569424766    19.422585808
    364      0   1 -0.550000     2.435286937    16.649115859    20.458783799
    365      0   1 -0.550000     8.440313069    15.999936379    12.590442121
    366      0   1 -0.550000     5.483784950    16.487178999    16.545879630
    367      0   1 -0.550000     2.273142277    18.212177665    22.446435346
    368      0   1 -0.550000     5.134246485    18.108682152    18.505002848
    369      0   1 -0.550000     0.881399019    16.960159420    18.325029391
    370      0   1 -0.550000     6.232705561    17.107694826    22.500500568
    371      0   1 -0.550000     3.902793937    17.023728258    14.467427007
    372      0   1 -0.550000     6.352503229    16.253093534    14.080838640
    373      0   1 -0.550000     0.431091341    16.302470839    22.038483733
    374      0   1 -0.550000     3.365206804    16.209402818    18.037579685
    375      0   1 -0.550000    -0.047722556    18.914710492    16.860491038
    376      0   1 -0.550000     5.408819563    19.026887615    21.006779691
    377      0   1 -0.550000     2.930714253    18.905399117    12.862258124