LAMMPS 2005 data file for silica_Q3_9pct_ioniz.

   2184 atoms
   2790 bonds
   5422 angles

   5 atom types
   3 bond types
   4 angle types

     0.000000000    33.388900000 xlo xhi
     0.000000000    34.858100000 ylo yhi
     0.000000000    65.533900000 zlo zhi

Masses

   1  15.999400
   2  15.999400
   3  28.086000
   4   1.008000
   5  22.989771

Pair Coeffs

   1   0.0400000000   3.6000000000 
   2   0.1200000000   3.6000000000 
   3   0.0800000000   4.2000000000 
   4   0.0130000000   1.0980000000 
   5   0.0800000000   3.3000000000 

Bond Coeffs

  1     1.6800   285.0000     0.0000     0.0000 
  2     1.6800   285.0000     0.0000     0.0000 
  3     0.9450   495.0000     0.0000     0.0000 

Angle Coeffs

  1   149.0000   100.0000     0.0000     0.0000 
  2   115.0000    50.0000     0.0000     0.0000 
  3   109.5000   100.0000     0.0000     0.0000 
  4   109.5000   100.0000     0.0000     0.0000 

Atoms

      1      0   1 -0.550000     3.296704590     0.479843637    11.240902070
      2      0   1 -0.550000     9.123037593     0.590918736     3.397891112
      3      0   1 -0.550000     6.193399916     0.453228111     7.280067002
      4      0   1 -0.550000     2.128372638     4.328887071     7.213054361
      5      0   1 -0.550000     7.491986600     4.307344338    11.159625803
      6      0   1 -0.550000     5.154048299     4.313468780     3.050759486
      7      0   1 -0.550000     5.042451604     3.521764826    11.651118716
      8      0   1 -0.550000     2.683881628     3.651644333     3.715648348
      9      0   1 -0.550000     8.025461126     3.528987226     7.678484412
     10      0   1 -0.550000     3.018673218     1.280406625     8.747342111
     11      0   2 -0.675000     9.039701964     1.451580073     0.883166570
     12      0   1 -0.550000     5.972744002     1.119148306     4.764095810
     13      0   1 -0.550000     2.647056871     2.965283803    10.714402651
     14      0   1 -0.550000     5.679753460     2.940366080     6.659614264
     15      0   1 -0.550000     1.393629918     1.844465195     6.785077864
     16      0   1 -0.550000     6.818927511     1.790522216    10.735968828
     17      0   1 -0.550000     4.331656146     1.802468938     2.861583714
     18      0   1 -0.550000     6.816084272     1.125210188     2.309838292
     19      0   1 -0.550000     0.921776786     1.035018574    10.289929798
     20      0   1 -0.550000     3.845597374     1.080176611     6.279343083
     21      0   1 -0.550000     0.518480627     3.772535066     5.235794828
     22      0   1 -0.550000     5.884251738     3.681578721     9.186072989
     23      0   2 -0.675000     3.428947329     3.545607807     1.189601918
     24      0   3  1.100000     8.361159048     1.561079544     2.369662600
     25      0   3  1.100000     2.477649320     1.442175754    10.250926569
     26      0   3  1.100000     5.418679549     1.401338555     6.250318132
     27      0   3  1.100000     0.919155030     3.380016135     6.742173816
     28      0   3  1.100000     6.311874239     3.321303054    10.693578316
     29      0   3  1.100000     3.909238850     3.339157094     2.737244619
     30      0   3  1.100000     3.486612738     3.928981421    11.693447707
     31      0   3  1.100000     1.111338851     4.002926272     3.757897605
     32      0   3  1.100000     6.460125205     3.892091546     7.697334401
     33      0   3  1.100000     2.586071620     0.881451813     7.254998003
     34      0   3  1.100000     8.014618907     0.820055974    11.199827279
     35      0   3  1.100000     5.545295822     0.818867639     3.242200289
     36      0   4  0.400000     3.376063438     2.690723861     0.800216310
     37      0   4  0.400000     9.848914293     0.974483724     0.995138903
     38      0   1 -0.550000     2.708634990     0.529902798    23.210730284
     39      0   1 -0.550000     8.644510077     0.491725383    15.227595637
     40      0   1 -0.550000     5.692040592     0.514162567    19.177146379
     41      0   1 -0.550000     1.592822848     4.325246713    19.091130351
     42      0   1 -0.550000     6.900494862     4.309375312    22.930948292
     43      0   1 -0.550000     4.533113283     4.321199776    15.172836727
     44      0   1 -0.550000     4.451740182     3.599958863    23.613399280
     45      0   1 -0.550000     2.078014916     3.520657700    15.659530486
     46      0   1 -0.550000     7.419141668     3.563422929    19.618441319
     47      0   1 -0.550000     2.427325424     1.350794171    20.738790978
     48      0   1 -0.550000     8.436785553     1.197484876    12.710756198
     49      0   1 -0.550000     5.431426231     1.245497879    16.693549298
     50      0   1 -0.550000     2.038368076     3.017971386    22.737627785
     51      0   1 -0.550000     5.067571648     2.985468246    18.605097962
     52      0   1 -0.550000     0.847905776     1.855660148    18.738273906
     53      0   1 -0.550000     6.160815090     1.858135790    22.689475784
     54      0   1 -0.550000     3.850887574     1.827541508    14.714461451
     55      0   1 -0.550000     6.303101446     1.083112278    14.228169771
     56      0   1 -0.550000     0.308044447     1.079273568    22.292505138
     57      0   1 -0.550000     3.305476486     1.070781781    18.252563484
     58      0   1 -0.550000    -0.058943939     3.728802856    17.169636143
     59      0   1 -0.550000     5.253244840     3.742125325    21.104100031
     60      0   1 -0.550000     2.933455154     3.751618648    13.192351637
     61      0   3  1.100000     7.866815144     1.441002050    14.203353981
     62      0   3  1.100000     1.863303562     1.497422492    22.240086997
     63      0   3  1.100000     4.869033901     1.454939688    18.179444605
     64      0   3  1.100000     0.363914162     3.382643809    18.677366583
     65      0   3  1.100000     5.672895370     3.368905931    22.595036279
     66      0   3  1.100000     3.347289677     3.352421764    14.687561286
     67      0   3  1.100000     2.899814721     3.977487634    23.692111465
     68      0   3  1.100000     0.515662653     3.914247740    15.685925640
     69      0   3  1.100000     5.845663552     3.940389423    19.628379683
     70      0   3  1.100000     2.035639309     0.910939874    19.240114433
     71      0   3  1.100000     7.382660623     0.928683598    23.122336921
     72      0   3  1.100000     5.033569483     0.865402802    15.185113902
     73      0   2 -0.675000     7.770470681     1.188311026    24.681443244
     74      0   2 -0.675000     2.365165860     3.854090382    25.223182651
     75      0   2 -0.675000     7.830952274     5.946776331    24.584393735
     76      0   2 -0.675000     2.588105503     8.524561497    25.205900950
     77      0   2 -0.675000     7.882793468    11.053427474    24.675279825
     78      0   2 -0.675000     2.479251191    13.788619798    25.205824948
     79      0   2 -0.900000     7.754100288    16.244749272    24.699875528
     80      0   2 -0.675000     2.359774749    18.647795813    25.081665801
     81      0   2 -0.675000     7.864354164    21.080856085    24.691277740
     82      0   2 -0.675000     2.384545108    23.760724684    25.181905278
     83      0   2 -0.675000     7.898325099    25.919296146    24.721420436
     84      0   2 -0.675000     2.279660548    28.671444731    25.073244167
     85      0   2 -0.900000     7.991879002    31.273518763    24.604698436
     86      0   2 -0.675000     2.379408156    33.654758581    25.129023167
     87      0   2 -0.675000    16.254841329     1.220751329    24.693713613
     88      0   2 -0.675000    10.673690359     4.097356708    25.150593721
     89      0   2 -0.675000    16.154971682     6.113324625    24.723026863
     90      0   2 -0.675000    10.720156768     8.701567783    25.243581317
     91      0   2 -0.900000    16.319937640    11.419895698    24.657580795
     92      0   2 -0.675000    10.797213219    13.636166194    25.130116020
     93      0   2 -0.675000    16.211271584    16.118274121    24.719309478
     94      0   2 -0.675000    10.940937078    18.645893469    25.122595900
     95      0   2 -0.675000    16.420168596    20.496801344    24.607026855
     96      0   2 -0.675000    10.761117438    23.723631399    25.118925743
     97      0   2 -0.675000    16.219320669    26.166090815    24.640756491
     98      0   2 -0.675000    10.788477666    28.794219362    25.187877680
     99      0   2 -0.675000    16.205661759    31.044095828    24.720810440
    100      0   2 -0.675000    10.662075303    33.384229441    25.017563913
    101      0   2 -0.675000    24.311619990     0.998056378    24.731213661
    102      0   2 -0.675000    19.048623538     3.505583695    25.057076475
    103      0   2 -0.675000    24.782230325     5.889079263    24.702834792
    104      0   2 -0.675000    19.004567629     8.791323046    25.086398746
    105      0   2 -0.675000    24.653783689    11.175440999    24.704370353
    106      0   2 -0.675000    18.810218021    13.502841604    25.056391243
    107      0   2 -0.675000    24.531969058    16.081156063    24.707356523
    108      0   2 -0.675000    19.145939822    18.821913539    25.157103124
    109      0   2 -0.675000    24.496455993    20.890772662    24.663847341
    110      0   2 -0.675000    19.173658549    23.476195143    25.030610302
    111      0   2 -0.675000    24.614678862    25.883083233    24.652993600
    112      0   2 -0.675000    19.186307108    28.586981895    25.167041427
    113      0   2 -0.675000    24.634595172    30.683887826    24.686391883
    114      0   2 -0.675000    19.329163054    33.570037424    25.177895168
    115      0   2 -0.900000    27.090167505     3.699616426    25.118833096
    116      0   2 -0.675000    27.275964238     8.599910593    25.087704425
    117      0   2 -0.675000    27.533882818    13.682027413    25.110094286
    118      0   2 -0.675000    27.517101432    18.938380403    25.134221448
    119      0   2 -0.900000    27.305810735    23.532054211    25.149738837
    120      0   2 -0.675000    27.360217953    28.837009410    25.110076062
    121      0   2 -0.675000    27.281992032    33.716918347    25.138305184
    122      0   2 -0.675000    32.950024756     0.989077478    24.826749210
    123      0   2 -0.675000    33.058803624     5.903462713    24.825165352
    124      0   2 -0.675000    32.893982608    11.426293214    24.780112573
    125      0   2 -0.675000    32.912525769    15.863224171    24.597456503
    126      0   2 -0.675000    32.896317710    21.005752772    24.739250122
    127      0   2 -0.675000    32.993952744    25.774561331    24.746718037
    128      0   2 -0.675000    32.949605230    30.965709182    24.766554809
    129      0   4  0.400000    32.290005173    25.473230790    25.292140216
    130      0   4  0.400000    26.762836069    34.473875163    25.329705192
    131      0   4  0.400000     9.855699027    32.919654309    24.866872008
    132      0   4  0.400000    32.173114427    31.092337385    25.276909526
    133      0   4  0.400000    16.781486199    30.352886851    25.000648180
    134      0   4  0.400000    28.059219999    29.051820889    25.698960675
    135      0   4  0.400000    11.505858175    28.403087245    25.662356705
    136      0   4  0.400000     7.152403005    25.693100560    25.247599446
    137      0   4  0.400000    25.294427068    30.040083640    24.868208911
    138      0   4  0.400000    25.443638008    26.310101363    24.673648385
    139      0   4  0.400000    28.130692376    19.482737416    25.599713716
    140      0   4  0.400000    24.852505053    15.280613342    25.083334332
    141      0   4  0.400000    26.481710004     8.132362454    24.917276775
    142      0   4  0.400000    24.893443431     1.728146760    24.858355402
    143      0   4  0.400000    16.766485723    19.633872967    24.758050755
    144      0   4  0.400000    32.663978911    15.049093569    24.990050439
    145      0   4  0.400000    33.514320702     6.705017770    25.001304066
    146      0   4  0.400000     1.705705013    24.404815894    25.300471287
    147      0   4  0.400000     3.174073781    13.310796557    25.657326400
    148      0   4  0.400000    19.363330751     9.510882691    25.602936719
    149      0   4  0.400000    18.069427759    12.940320698    24.864382673
    150      0   4  0.400000    10.049947682    18.608012294    24.970029033
    151      0   4  0.400000    10.804349359     9.530352313    25.680505672
    152      0   4  0.400000     7.851882827     0.346844340    25.091852312
    153      0   4  0.400000    16.546980686     5.288655416    24.994124155
    154      0   4  0.400000    19.898876573    23.129440343    25.511675591
    155      0   4  0.400000     7.978378781    10.185301633    25.042282069
    156      0   4  0.400000     1.551937822     4.320131452    25.279526087
    157      0   4  0.400000     2.423617131    34.488558915    25.559166748
    158      0   4  0.400000     9.891548320    24.073884818    25.152258438
    159      0   4  0.400000    19.613802947    27.815339944    25.482631788
    160      0   4  0.400000    24.737762813    20.042034859    24.939482323
    161      0   4  0.400000    19.597302368    18.101238487    25.558501794
    162      0   4  0.400000    11.399416453     4.202592937    25.732873433
    163      0   4  0.400000     2.339681387     9.324292386    25.628367885
    164      0   4  0.400000    25.196358354     5.051320622    24.883255845
    165      0   4  0.400000    18.410031009     2.825891428    24.949465384
    166      0   4  0.400000    28.197762282    13.194179189    25.554166509
    167      0   4  0.400000     2.783170556    19.256866441    25.656141161
    168      0   4  0.400000    11.565326751    13.624526029    25.668224880
    169      0   4  0.400000    16.392157152    15.279607245    25.103494382
    170      0   4  0.400000    33.037836130    20.166594294    25.137740034
    171      0   4  0.400000     1.777032863    29.440723692    25.275982682
    172      0   4  0.400000    16.149956258     0.416976689    25.174627454
    173      0   4  0.400000    32.778965326     0.188286261    25.284990492
    174      0   4  0.400000     7.974539778     5.086071230    24.935325310
    175      0   4  0.400000     7.243053218    20.678745550    25.263394623
    176      0   4  0.400000    16.155472851    25.373366896    25.143216565
    177      0   4  0.400000    25.136893427    10.445559950    25.035237518
    178      0   4  0.400000    19.747464958    34.247003608    25.677288521
    179      0   1 -0.550000     3.311669695     5.462247185    11.243524926
    180      0   1 -0.550000     9.210138900     5.572019632     3.344835276
    181      0   1 -0.550000     6.245995071     5.432256224     7.263626182
    182      0   1 -0.550000     2.154576436     9.300318574     7.102169395
    183      0   1 -0.550000     7.512610827     9.300984043    11.105537954
    184      0   1 -0.550000     5.141463541     9.294934525     3.134522398
    185      0   1 -0.550000     5.030999505     8.608446477    11.695717577
    186      0   1 -0.550000     2.639598473     8.627157621     3.686113441
    187      0   1 -0.550000     8.008120516     8.619050787     7.782214628
    188      0   1 -0.550000     3.052618222     6.227007510     8.772224062
    189      0   2 -0.675000     9.224915338     6.497976146     0.923441359
    190      0   1 -0.550000     6.015911687     6.149960446     4.758264871
    191      0   1 -0.550000     2.691786867     7.966529208    10.695816267
    192      0   1 -0.550000     5.722595395     7.948231424     6.674637357
    193      0   1 -0.550000     1.402458102     6.815935978     6.814798969
    194      0   1 -0.550000     6.757389398     6.810964996    10.781061514
    195      0   1 -0.550000     4.395668090     6.818231770     2.821017699
    196      0   1 -0.550000     6.891803801     6.135549147     2.267863194
    197      0   1 -0.550000     0.949447267     6.027940796    10.293494490
    198      0   1 -0.550000     3.880069966     6.078329893     6.293726206
    199      0   1 -0.550000     0.489083910     8.676335290     5.194258271
    200      0   1 -0.550000     5.833933289     8.664199668     9.218873132
    201      0   2 -0.675000     3.547317239     8.587622724     1.178282918
    202      0   3  1.100000     8.445045784     6.540521414     2.357851830
    203      0   3  1.100000     2.499696961     6.427794373    10.253850439
    204      0   3  1.100000     5.465513788     6.404578174     6.253872688
    205      0   3  1.100000     0.929530871     8.346908456     6.709017324
    206      0   3  1.100000     6.280325583     8.343563214    10.718782957
    207      0   3  1.100000     3.916569408     8.349463385     2.743484836
    208      0   3  1.100000     3.463024023     8.941312077    11.719956168
    209      0   3  1.100000     1.065713295     8.958032203     3.716493820
    210      0   3  1.100000     6.432012421     8.919113399     7.751587278
    211      0   3  1.100000     2.612911229     5.862439284     7.273753648
    212      0   3  1.100000     7.963482963     5.847189769    11.215682914
    213      0   3  1.100000     5.615913286     5.843907587     3.228358829
    214      0   4  0.400000    10.056933894     6.912153483     1.067793641
    215      0   4  0.400000     3.942087168     7.882188969     0.699061975
    216      0   1 -0.550000     2.735499155     5.478261426    23.216241745
    217      0   1 -0.550000     8.667066358     5.468062035    15.197848988
    218      0   1 -0.550000     5.669431142     5.476756666    19.188278617
    219      0   1 -0.550000     1.627902805     9.292701777    19.157698526
    220      0   1 -0.550000     7.033850655     9.330417558    23.014906851
    221      0   1 -0.550000     4.507169884     9.296285219    15.181121473
    222      0   1 -0.550000     4.590205428     8.667862214    23.587496606
    223      0   1 -0.550000     2.046189251     8.523818781    15.678172495
    224      0   1 -0.550000     7.466311208     8.568009158    19.585321349
    225      0   1 -0.550000     2.501474991     6.153231925    20.729356449
    226      0   1 -0.550000     8.405929623     6.219776352    12.710423312
    227      0   1 -0.550000     5.429402819     6.255886511    16.699403368
    228      0   1 -0.550000     2.240445686     7.951198654    22.612102769
    229      0   1 -0.550000     5.106833464     7.988023797    18.618721301
    230      0   1 -0.550000     0.852920413     6.813551229    18.804003586
    231      0   1 -0.550000     6.217609265     6.842598221    22.713887897
    232      0   1 -0.550000     3.815520172     6.810916755    14.731250286
    233      0   1 -0.550000     6.289512549     6.050869062    14.242007640
    234      0   1 -0.550000     0.361029550     6.082951032    22.279318822
    235      0   1 -0.550000     3.315012113     6.111843552    18.233577741
    236      0   1 -0.550000    -0.049932086     8.708172645    17.234024433
    237      0   1 -0.550000     5.362035677     8.717326713    21.102357128
    238      0   1 -0.550000     2.893605203     8.725444129    13.201959679
    239      0   3  1.100000     7.851744150     6.426325319    14.205953009
    240      0   3  1.100000     1.937725077     6.428548426    22.212662632
    241      0   3  1.100000     4.879277821     6.460505665    18.187921662
    242      0   3  1.100000     0.392864547     8.353331666    18.736378280
    243      0   3  1.100000     5.801721290     8.392182303    22.593094213
    244      0   3  1.100000     3.309368582     8.336140647    14.704682608
    245      0   3  1.100000     3.001760576     8.895474967    23.667494196
    246      0   3  1.100000     0.485673506     8.905265481    15.739497015
    247      0   3  1.100000     5.907141615     8.949599005    19.620620052
    248      0   3  1.100000     2.066004975     5.852241734    19.214390212
    249      0   3  1.100000     7.394608423     5.791463568    23.019587798
    250      0   3  1.100000     5.016682301     5.853265914    15.207507086
    251      0   1 -0.550000     3.241343954    10.460214770    11.280091447
    252      0   1 -0.550000     9.216038751    10.477089963     3.344425941
    253      0   1 -0.550000     6.186985732    10.455391261     7.340108338
    254      0   1 -0.550000     2.150949575    14.272960009     7.172637143
    255      0   1 -0.550000     7.570900361    14.230852261    11.118014377
    256      0   1 -0.550000     5.155816970    14.256332617     3.133808168
    257      0   1 -0.550000     5.073538534    13.580756993    11.640193862
    258      0   1 -0.550000     2.640960325    13.599349710     3.693681866
    259      0   1 -0.550000     8.042556355    13.545405611     7.679263317
    260      0   1 -0.550000     3.029681824    11.116886836     8.759907439
    261      0   2 -0.675000     8.935371204    11.133120667     0.814689882
    262      0   1 -0.550000     6.012306488    11.108029421     4.820354959
    263      0   1 -0.550000     2.731242619    12.944356526    10.623227577
    264      0   1 -0.550000     5.712990148    12.948656487     6.662529438
    265      0   1 -0.550000     1.394538429    11.796380652     6.819838300
    266      0   1 -0.550000     6.784892051    11.785487306    10.741302701
    267      0   1 -0.550000     4.373984342    11.783152935     2.885922222
    268      0   1 -0.550000     6.832359634    11.102925663     2.351753885
    269      0   1 -0.550000     0.896539588    11.058095122    10.289100021
    270      0   1 -0.550000     3.864941020    11.110277107     6.286595705
    271      0   1 -0.550000     0.510710738    13.696138277     5.219866763
    272      0   1 -0.550000     5.897976186    13.661883980     9.171967948
    273      0   2 -0.675000     3.527694120    13.551150277     1.185072898
    274      0   3  1.100000     8.404995323    11.423999100     2.329433326
    275      0   3  1.100000     2.471677268    11.401109544    10.238148339
    276      0   3  1.100000     5.442955780    11.410235261     6.288344810
    277      0   3  1.100000     0.931779827    13.331611302     6.729166681
    278      0   3  1.100000     6.327709402    13.317291902    10.673561549
    279      0   3  1.100000     3.917987004    13.309408203     2.747986661
    280      0   3  1.100000     3.498709184    13.909682944    11.658486333
    281      0   3  1.100000     1.062079391    13.944930784     3.730094277
    282      0   3  1.100000     6.480385060    13.905924126     7.696665741
    283      0   3  1.100000     2.607988165    10.830859806     7.245165129
    284      0   3  1.100000     7.990054179    10.832998870    11.180656721
    285      0   3  1.100000     5.583919798    10.822312564     3.306044084
    286      0   4  0.400000     3.952112128    12.884718074     0.678625373
    287      0   4  0.400000     8.951824114    11.961360102     0.371717601
    288      0   1 -0.550000     2.717423317    10.438866811    23.339511449
    289      0   1 -0.550000     8.679186731    10.432784718    15.154788986
    290      0   1 -0.550000     5.709909357    10.482896292    19.202193627
    291      0   1 -0.550000     1.647626046    14.285147510    19.060245805
    292      0   1 -0.550000     7.021387829    14.349501403    23.045041398
    293      0   1 -0.550000     4.589314719    14.259276689    15.071101000
    294      0   1 -0.550000     4.556372119    13.677521882    23.608783139
    295      0   1 -0.550000     2.117298438    13.603656995    15.616639704
    296      0   1 -0.550000     7.498434003    13.589057295    19.619541461
    297      0   1 -0.550000     2.530279485    11.149061027    20.805412933
    298      0   1 -0.550000     8.404823563    11.192681974    12.686473765
    299      0   1 -0.550000     5.435483708    11.218513838    16.711102320
    300      0   1 -0.550000     2.217477409    12.965646747    22.667019834
    301      0   1 -0.550000     5.138503924    12.972707749    18.624728865
    302      0   1 -0.550000     0.865523140    11.788961910    18.848576676
    303      0   1 -0.550000     6.239388904    11.842164616    22.756717575
    304      0   1 -0.550000     3.807885045    11.784853735    14.749306005
    305      0   1 -0.550000     6.277527915    11.020577587    14.233263972
    306      0   1 -0.550000     0.380502290    11.093382004    22.306891622
    307      0   1 -0.550000     3.320524781    11.090570987    18.287072459
    308      0   1 -0.550000    -0.008602011    13.608511053    17.145547275
    309      0   1 -0.550000     5.363920536    13.718668164    21.120400892
    310      0   1 -0.550000     2.932074492    13.659793607    13.131425969
    311      0   3  1.100000     7.850988950    11.386345849    14.174780238
    312      0   3  1.100000     1.955510408    11.415973611    22.298366043
    313      0   3  1.100000     4.892188239    11.439552556    18.210812824
    314      0   3  1.100000     0.417457560    13.323092901    18.666770747
    315      0   3  1.100000     5.798179376    13.386339969    22.635121982
    316      0   3  1.100000     3.358718795    13.321478828    14.644328607
    317      0   3  1.100000     2.974115350    13.961525753    23.659674974
    318      0   3  1.100000     0.540597242    13.889014859    15.661581666
    319      0   3  1.100000     5.928097639    13.938696405    19.637655751
    320      0   3  1.100000     2.079687861    10.830567078    19.282864232
    321      0   3  1.100000     7.463428187    10.870870032    23.120464858
    322      0   3  1.100000     5.007442685    10.823350573    15.213672955
    323      0   1 -0.550000     3.260707806    15.439386809    11.231512788
    324      0   1 -0.550000     9.186262661    15.455218602     3.333268716
    325      0   1 -0.550000     6.264246826    15.428260369     7.275225121
    326      0   1 -0.550000     2.162574326    19.252277469     7.120502590
    327      0   1 -0.550000     7.530688591    19.221027507    11.206213213
    328      0   1 -0.550000     5.229185828    19.195424068     3.249246410
    329      0   1 -0.550000     5.074046331    18.419588095    11.671737767
    330      0   1 -0.550000     2.712063042    18.574557808     3.678442937
    331      0   1 -0.550000     8.036149591    18.513214488     7.679193526
    332      0   1 -0.550000     3.047674354    16.180822863     8.733301376
    333      0   2 -0.900000     8.983856275    16.107281380     0.774356271
    334      0   1 -0.550000     6.060701106    16.121540994     4.771865329
    335      0   1 -0.550000     2.707065533    17.918019372    10.659878020
    336      0   1 -0.550000     5.682217865    17.901910632     6.696181745
    337      0   1 -0.550000     1.468472956    16.760719574     6.731665682
    338      0   1 -0.550000     6.871053209    16.701977741    10.785603362
    339      0   1 -0.550000     4.425931934    16.761826718     2.844148311
    340      0   1 -0.550000     6.871162631    16.095152738     2.299500519
    341      0   1 -0.550000     0.910025290    16.049166789    10.248035407
    342      0   1 -0.550000     3.926562141    15.982367020     6.272620477
    343      0   1 -0.550000     0.543205846    18.649651475     5.159857628
    344      0   1 -0.550000     5.924472188    18.567846785     9.222155699
    345      0   2 -0.675000     3.674214783    18.673695271     1.237754766
    346      0   3  0.725000     8.440599126    16.402766526     2.285801848
    347      0   3  1.100000     2.478476365    16.399079864    10.216129744
    348      0   3  1.100000     5.486084992    16.366648156     6.253145086
    349      0   3  1.100000     0.960606183    18.281428451     6.674144474
    350      0   3  1.100000     6.356646384    18.225573174    10.725880018
    351      0   3  1.100000     4.001037112    18.296379956     2.783323594
    352      0   3  1.100000     3.519086216    18.852900250    11.675569657
    353      0   3  1.100000     1.127269983    18.912390005     3.668188776
    354      0   3  1.100000     6.468351500    18.843073141     7.739450009
    355      0   3  1.100000     2.649058391    15.799744111     7.228477706
    356      0   3  1.100000     8.078995023    15.744884018    11.224675579
    357      0   3  1.100000     5.624721408    15.799624922     3.262318459
    358      0   4  0.400000     3.635608308    17.873912796     0.749197031
    359      0   1 -0.550000     2.680791078    15.487337157    23.233336087
    360      0   1 -0.550000     8.676169582    15.377530797    15.261194887
    361      0   1 -0.550000     5.703234550    15.467054238    19.195891164
    362      0   1 -0.550000     1.601517722    19.304557636    19.125326618
    363      0   1 -0.550000     6.998866029    19.288590622    23.000795973
    364      0   1 -0.550000     4.549402286    19.250989779    15.111552522
    365      0   1 -0.550000     4.512517624    18.591216357    23.566680848
    366      0   1 -0.550000     2.090683734    18.456768231    15.600904124
    367      0   1 -0.550000     7.486151513    18.615628958    19.600302185
    368      0   1 -0.550000     2.565452344    16.147455827    20.663837480
    369      0   1 -0.550000     8.506816865    16.072274831    12.736699018
    370      0   1 -0.550000     5.493056392    16.145757167    16.670867983
    371      0   1 -0.550000     2.200944332    17.961520705    22.529153226
    372      0   1 -0.550000     5.162416895    17.943300092    18.561271943
    373      0   1 -0.550000     0.907876945    16.781740787    18.729676119
    374      0   1 -0.550000     6.220786840    16.818249903    22.690335135
    375      0   1 -0.550000     3.874738624    16.751041228    14.691199315
    376      0   1 -0.550000     6.354871216    15.998700351    14.212173640
    377      0   1 -0.550000     0.403725669    16.129138483    22.110832227