LAMMPS 2005 data file for silica_Q3_Q4_2_4OH_n

   2100 atoms
   2728 bonds
   5388 angles
   8016 dihedrals
   3568 impropers

   5 atom types
   3 bond types
   4 angle types
   3 dihedral types
   3 improper types

     0.000000000    33.367500000 xlo xhi
     0.000000000    34.842000000 ylo yhi
     0.000000000    66.858400000 zlo zhi

Masses

   1  15.999400
   2  15.999400
   3  28.086000
   4   1.008000
   5  22.989771

Pair Coeffs

   1   0.0400000000   3.6000000000 
   2   0.1200000000   3.6000000000 
   3   0.0800000000   4.2000000000 
   4   0.0130000000   1.0980000000 
   5   0.0800000000   3.3000000000 

Bond Coeffs

  1     1.6800   285.0000     0.0000     0.0000 
  2     1.6800   285.0000     0.0000     0.0000 
  3     0.9450   495.0000     0.0000     0.0000 

Angle Coeffs

  1   149.0000   100.0000     0.0000     0.0000 
  2   115.0000    50.0000     0.0000     0.0000 
  3   109.5000   100.0000     0.0000     0.0000 
  4   109.5000   100.0000     0.0000     0.0000 

Atoms

      1      0   1 -0.550000     3.620758737     0.000764446    10.768385162
      2      0   1 -0.550000     9.309140421     0.166256312     3.535453849
      3      0   1 -0.550000     6.571893364    -0.198973147     6.884919626
      4      0   1 -0.550000     1.673390636     4.897759711     6.419600035
      5      0   1 -0.550000     7.642586115     3.717721403    11.300281637
      6      0   1 -0.550000     5.045100516     4.287815565     2.649261974
      7      0   1 -0.550000     5.147255205     3.015185274    11.774982294
      8      0   1 -0.550000     2.477597108     3.805236660     2.816788517
      9      0   1 -0.550000     8.050730396     2.645520390     8.016253538
     10      0   1 -0.550000     3.098044795     1.321034322     8.491940750
     11      0   1 -0.550000    10.106734327     2.332908206     1.979954125
     12      0   1 -0.550000     6.078210656     1.047385225     4.546787221
     13      0   1 -0.550000     2.728744202     2.480718075    10.852805986
     14      0   1 -0.550000     5.723178295     2.246660473     6.868540702
     15      0   1 -0.550000     2.270611062     2.333523450     6.163039728
     16      0   1 -0.550000     6.927817879     1.255703680    10.953907754
     17      0   1 -0.550000     4.451160527     1.773176579     2.550037785
     18      0   1 -0.550000     7.223283362     1.245228959     2.170365237
     19      0   1 -0.550000     1.166014562     0.573384546    10.115954880
     20      0   1 -0.550000     4.080022167     0.434299242     6.231746043
     21      0   1 -0.550000     0.468386930     3.467872481     4.505113022
     22      0   1 -0.550000     5.969777984     3.079498612     9.366321490
     23      0   2 -0.675000     3.834627606     3.412014603     0.536533949
     24      0   3  1.100000     8.806867536     1.442354858     2.666041717
     25      0   3  1.100000     2.672960296     1.090722353    10.042347846
     26      0   3  1.100000     5.619991039     0.845142431     6.101382103
     27      0   3  1.100000     1.084978865     3.431673964     6.047397275
     28      0   3  1.100000     6.421236843     2.772354480    10.857579039
     29      0   3  1.100000     3.912749072     3.282825072     2.160537284
     30      0   3  1.100000     3.622159360     3.490881215    11.731484818
     31      0   3  1.100000     0.818353012     3.736741602     2.905299894
     32      0   3  1.100000     6.556366241     3.143954807     7.902402816
     33      0   3  1.100000     2.748492642     0.990607320     6.940141541
     34      0   3  1.100000     8.173440966     0.325664699    11.363958278
     35      0   3  1.100000     5.773160519     0.841044255     2.956050183
     36      0   4  0.400000     4.058481706     4.299673690     0.316371645
     37      0   1 -0.550000     2.620273781    -0.594291001    23.024754548
     38      0   1 -0.550000     8.705823030    -0.006677079    15.397054784
     39      0   1 -0.550000     6.059119884    -0.221323977    19.126326211
     40      0   1 -0.550000     1.600427711     3.807654760    18.903936578
     41      0   1 -0.550000     6.618953100     4.214817873    23.571458366
     42      0   1 -0.550000     4.770399004     4.150760244    15.191704627
     43      0   1 -0.550000     3.976158549     3.612343425    23.623964156
     44      0   1 -0.550000     2.285905937     3.379889055    15.652659307
     45      0   1 -0.550000     7.496273434     2.885118724    19.858835539
     46      0   1 -0.550000     2.346939374     0.763677631    20.704430889
     47      0   1 -0.550000     8.609170681     0.679978301    12.873209833
     48      0   1 -0.550000     5.558686834     0.990752408    16.839642279
     49      0   1 -0.550000     2.020808039     1.938612721    23.126857005
     50      0   1 -0.550000     5.075077959     2.257140038    19.121012848
     51      0   1 -0.550000     1.228778567     1.247116896    18.367716437
     52      0   1 -0.550000     5.975212216     1.782013098    22.971568475
     53      0   1 -0.550000     4.021360169     1.639948634    14.814448868
     54      0   1 -0.550000     6.460563073     0.829048719    14.360420284
     55      0   1 -0.550000     0.287481739     0.375290296    22.401935660
     56      0   1 -0.550000     3.607637993     0.219335274    18.411387937
     57      0   1 -0.550000     0.057005373     3.150486179    16.953357265
     58      0   1 -0.550000     5.396419973     3.717061702    21.315862575
     59      0   1 -0.550000     3.117505165     3.514933900    13.240758020
     60      0   3  1.100000     8.050288289     1.010813810    14.347600804
     61      0   3  1.100000     1.846434160     0.596764838    22.245660107
     62      0   3  1.100000     5.088107920     0.821746343    18.375942744
     63      0   3  1.100000     0.535657578     2.700840839    18.428646257
     64      0   3  1.100000     5.458448660     3.322699986    22.886673968
     65      0   3  1.100000     3.568167540     3.175405694    14.736395037
     66      0   3  1.100000     2.377809902     3.503736727    23.231537432
     67      0   3  1.100000     0.707007099     3.542612384    15.523626990
     68      0   3  1.100000     5.979047511     3.389898549    19.830231026
     69      0   3  1.100000     2.193093002     0.235508853    19.169793690
     70      0   3  1.100000     7.241577105     0.852358893    23.418714376
     71      0   3  1.100000     5.179017832     0.650272428    15.307907376
     72      0   2 -0.675000     7.702695273     1.417329020    24.878734228
     73      0   2 -0.900000     7.879773238     6.070573090    24.872020563
     74      0   2 -0.675000     2.462584541     8.508477332    24.405448605
     75      0   1 -0.550000    10.048204192     9.423712629    24.188383679
     76      0   1 -0.550000     2.065490241    11.731048788    24.221041126
     77      0   2 -0.900000     3.061031522    17.806255595    24.945893242
     78      0   2 -0.675000     8.082116109    21.277942095    25.137457129
     79      0   1 -0.550000     1.391293596    21.847654748    23.958813379
     80      0   2 -0.675000     8.380780450    25.840344318    24.933420759
     81      0   2 -0.900000     2.921678639    28.830776846    24.656855573
     82      0   1 -0.550000     9.640770024    31.684431547    23.898714653
     83      0   1 -0.550000     1.442184976    31.846517179    23.875223832
     84      0   2 -0.675000    16.340063133    -0.299146566    24.965634502
     85      0   2 -0.675000    11.333066301     2.891492706    25.198076726
     86      0   1 -0.550000    18.137029071     4.543446995    24.161451329
     87      0   2 -0.675000    16.783577311    11.396731439    24.378583954
     88      0   2 -0.675000    11.212122602    13.243882403    24.815951152
     89      0   2 -0.675000    16.527970839    15.735792248    24.734645569
     90      0   1 -0.550000     9.823550028    16.506538204    23.856482487
     91      0   2 -0.900000    11.548756490    23.525502690    25.178966981
     92      0   2 -0.675000    12.706671338    27.982717471    24.645718294
     93      0   2 -0.900000    16.268021545    29.948763971    24.932900468
     94      0   1 -0.550000    26.472563688     1.898512405    24.054245594
     95      0   2 -0.675000    23.651331699     7.019029784    24.845069362
     96      0   1 -0.550000    22.522659096     9.110606981    23.615822081
     97      0   2 -0.900000    19.060301348    12.833169816    24.924592355
     98      0   2 -0.675000    24.719675779    15.914216675    24.935827405
     99      0   1 -0.550000    18.199317554    19.431372113    23.946005910
    100      0   1 -0.550000    26.683072963    19.543919338    23.973957845
    101      0   2 -0.675000    20.270418595    23.472215409    24.262419148
    102      0   2 -0.675000    25.261001970    24.700750845    25.016174419
    103      0   1 -0.550000    18.554835352    26.565197507    24.050427802
    104      0   2 -0.675000    19.966987613    32.742573039    24.994869506
    105      0   2 -0.900000    28.266953991     8.163748086    25.188073203
    106      0   2 -0.675000    28.162269833    13.917940705    25.236257206
    107      0   2 -0.900000    28.030484906    22.310134629    25.002844113
    108      0   1 -0.550000    26.604885291    29.364704693    23.993144083
    109      0   2 -0.675000    28.017475983    32.862779786    24.680309059
    110      0   2 -0.675000    33.222317560     0.167995615    24.973933602
    111      0   1 -0.550000     1.114664560     4.432715454    23.923768025
    112      0   2 -0.675000    33.299858633    15.430597292    24.955984308
    113      0   2 -0.675000    33.047829442    25.532427827    24.677439211
    114      0   4  0.400000    32.492346962    24.809462867    24.930038511
    115      0   5  1.000000    17.019142146    31.982646894    25.344717199
    116      0   4  0.400000    13.483727999    28.526077002    24.693423166
    117      0   5  1.000000    11.512138030    25.659326314    25.358506372
    118      0   5  1.000000     1.508281121    27.334195611    25.175554935
    119      0   5  1.000000    25.966229873    22.452311036    25.345089159
    120      0   4  0.400000    34.052900988    15.970455188    25.143136296
    121      0   5  1.000000    26.234239172     8.573591572    25.561844803
    122      0   4  0.400000     7.945179229     2.321424988    24.778436950
    123      0   4  0.400000    19.384156568    23.269906626    24.502453338
    124      0   4  0.400000    10.877884896     3.658259967    25.497890821
    125      0   4  0.400000     1.532906197     8.497037117    24.245566388
    126      0   4  0.400000    22.760331281     7.289253321    24.694304233
    127      0   4  0.400000    29.016060762    14.144268198    25.551558525
    128      0   4  0.400000    10.651635078    13.990900167    24.885274849
    129      0   4  0.400000    16.844389013    16.624814891    24.688788581
    130      0   4  0.400000    16.110890426     0.445545226    25.497510084
    131      0   4  0.400000    34.133869693     0.389428428    24.956828118
    132      0   5  1.000000     5.850636720     6.509851123    25.377982241
    133      0   5  1.000000     4.656222423    19.018176231    25.706346565
    134      0   5  1.000000    17.187318589    13.525793954    25.679227166
    135      0   4  0.400000    20.684096236    32.648479039    25.597193468
    136      0   4  0.400000     7.598956845    25.985842283    25.434229456
    137      0   4  0.400000    25.570983332    25.467018119    25.473360714
    138      0   4  0.400000     8.933464269    21.687123927    25.198361906
    139      0   4  0.400000    17.712606741    11.594767881    24.257770596
    140      0   4  0.400000    25.290228600    15.233907401    25.252140864
    141      0   4  0.400000    28.831638744    32.671100223    25.115873328
    142      0   1 -0.550000     3.486602724     4.959498296    11.093848851
    143      0   1 -0.550000     9.050370039     5.042515962     3.851344865
    144      0   1 -0.550000     6.495735994     4.640394996     7.364878640
    145      0   1 -0.550000     1.375710970     9.753745156     7.476324640
    146      0   1 -0.550000     7.852264295     8.748282960    10.973983904
    147      0   1 -0.550000     4.888833193     9.116929915     3.391500090
    148      0   1 -0.550000     5.344639891     8.360445422    11.557584895
    149      0   1 -0.550000     2.298586896     8.474687360     2.635282058
    150      0   1 -0.550000     8.366723441     8.013185883     7.600802833
    151      0   1 -0.550000     2.029246530     5.624526990     8.988226917
    152      0   2 -0.675000     8.130917232     5.071741575     1.331965153
    153      0   1 -0.550000     5.276021984     5.128106002     5.131007679
    154      0   1 -0.550000     3.023024458     7.500581306    10.585763535
    155      0   1 -0.550000     6.002030159     7.132831586     6.790645555
    156      0   1 -0.550000     2.358954250     7.348461984     7.051301600
    157      0   1 -0.550000     6.983989923     6.284754406    11.442076985
    158      0   1 -0.550000     4.140948392     6.645627185     3.302570700
    159      0   1 -0.550000     6.723128890     6.175424683     3.249212686
    160      0   1 -0.550000     1.069017046     5.910030918    11.411701180
    161      0   1 -0.550000     4.072207529     5.428814391     7.419162155
    162      0   1 -0.550000     1.554763788     8.872200145     5.051668565
    163      0   1 -0.550000     6.403104504     7.461053312     9.292742192
    164      0   2 -0.900000     4.426762798     7.987661419     1.085691712
    165      0   3  1.100000     8.206133185     5.853369370     2.758081374
    166      0   3  1.100000     2.405204603     6.003661635    10.516094675
    167      0   3  1.100000     5.461229139     5.617512329     6.648592581
    168      0   3  1.100000     1.300109392     8.448195242     6.558002916
    169      0   3  1.100000     6.630502047     7.714190995    10.832452697
    170      0   3  0.725000     3.877571618     8.076314425     2.638015439
    171      0   3  1.100000     3.750790120     8.579577681    11.550183555
    172      0   3  1.100000     0.992751764     8.686752927     3.571390850
    173      0   3  1.100000     6.778108884     8.038943526     7.872525357
    174      0   3  1.100000     2.519410888     5.808366138     7.463810421
    175      0   3  1.100000     8.159568578     5.215494336    11.567336799
    176      0   3  1.100000     5.285651651     5.553743312     3.591871286
    177      0   4  0.400000     8.289094687     4.153870468     1.461854182
    178      0   1 -0.550000     2.398243307     4.227726999    21.857833655
    179      0   1 -0.550000     8.646451991     4.978522760    15.617377024
    180      0   1 -0.550000     5.994402294     4.720030472    18.935602601
    181      0   1 -0.550000     1.776041036     8.702466786    18.784791863
    182      0   1 -0.550000     7.374119135     8.947605528    23.508546060
    183      0   1 -0.550000     4.782585370     9.161873513    15.066218628
    184      0   1 -0.550000     4.854478064     8.133075813    23.394090187
    185      0   1 -0.550000     2.285886245     8.382095978    15.451125088
    186      0   1 -0.550000     7.703881638     7.617330305    19.532631029
    187      0   1 -0.550000     2.313285370     5.993867656    20.047279730
    188      0   1 -0.550000     8.684093231     5.357321433    13.052932632
    189      0   1 -0.550000     5.619294871     6.085624493    16.747700811
    190      0   1 -0.550000     2.860434253     6.659577854    22.556133975
    191      0   1 -0.550000     5.182832481     7.208187277    19.090335927
    192      0   1 -0.550000     1.239024599     6.298035943    17.892987775
    193      0   1 -0.550000     6.747264602     6.597105351    22.594538778
    194      0   1 -0.550000     4.081998810     6.637475740    14.715721778
    195      0   1 -0.550000     6.561750274     5.890615378    14.360674389
    196      0   1 -0.550000     0.472252634     5.698425904    21.931536636
    197      0   1 -0.550000     3.631794454     5.279284997    18.046442403
    198      0   1 -0.550000     0.129638515     8.378993843    16.828205544
    199      0   1 -0.550000     6.047368168     8.674463228    21.167495404
    200      0   1 -0.550000     3.206536962     8.415651471    13.043482533
    201      0   3  1.100000     8.154479609     5.929167235    14.432784398
    202      0   3  1.100000     2.013036087     5.713177623    21.535205475
    203      0   3  1.100000     5.107467877     5.840401609    18.228358175
    204      0   3  1.100000     0.634869996     7.745696586    18.188529573
    205      0   3  1.100000     6.279312436     8.124791760    22.649571190
    206      0   3  1.100000     3.603412714     8.161012588    14.572998004
    207      0   3  1.100000     3.285151129     8.145834118    23.045078515
    208      0   3  1.100000     0.700992972     8.610009884    15.365827640
    209      0   3  1.100000     6.263415714     8.282195618    19.632721005
    210      0   3  1.100000     2.184848551     5.298403693    18.662796696
    211      0   3  0.725000     7.587146101     5.479217250    23.363283653
    212      0   3  1.100000     5.256505645     5.687831335    15.246142430
    213      0   1 -0.550000     3.377291966    10.079433471    11.110315844
    214      0   1 -0.550000     8.127511134     9.762558498     2.706814827
    215      0   1 -0.550000     6.281526560     9.542769893     7.938982482
    216      0   1 -0.550000     1.538166125    14.641706488     6.538965167
    217      0   1 -0.550000     7.462811438    13.837777148    11.509508037
    218      0   1 -0.550000     5.250966901    13.930040300     3.766465865
    219      0   1 -0.550000     5.022896729    12.872614063    11.837217171
    220      0   1 -0.550000     3.171765465    12.768622347     2.501760947
    221      0   1 -0.550000     8.068007411    12.689382131     7.968630682
    222      0   1 -0.550000     1.777147583    11.275135350     9.490164916
    223      0   1 -0.550000     6.015960808    11.801598195     2.335005568
    224      0   1 -0.550000     4.844282423     9.891557226     5.990992706
    225      0   1 -0.550000     2.424821067    12.534368741    11.581723714
    226      0   1 -0.550000     5.669758830    12.003328556     7.224079919
    227      0   1 -0.550000     2.282857547    12.201422815     7.149904807
    228      0   1 -0.550000     6.949594741    11.272079909    10.920570822
    229      0   1 -0.550000     4.443763838    11.562222624     4.166903313
    230      0   1 -0.550000     6.691780319    10.760950525     4.383756822
    231      0   1 -0.550000     0.857902392    10.411357445    11.701682613
    232      0   1 -0.550000     3.813515003    10.418464291     8.210312489
    233      0   1 -0.550000     1.499758023    12.597708165     4.706403214
    234      0   1 -0.550000     6.017845980    13.245410871     9.464150815
    235      0   3  1.100000     7.417763401    11.209417801     3.062075820
    236      0   3  1.100000     2.123825227    11.076826014    11.002102979
    237      0   3  1.100000     5.154473501    10.482861081     7.386862380
    238      0   3  1.100000     1.271493602    13.055649657     6.277721714
    239      0   3  1.100000     6.368036343    12.797041902    10.950281278
    240      0   3  1.100000     4.709766841    12.596674992     3.051628347
    241      0   3  1.100000     3.569596645    13.557320865    12.009202394
    242      0   3  1.100000     1.655525568    13.076658889     3.147032067
    243      0   3  1.100000     6.533095465    13.136892543     7.962519083
    244      0   3  1.100000     2.312469568    10.902349105     8.069112454
    245      0   3  1.100000     8.221993899    10.301656471    11.219358201
    246      0   3  1.100000     5.178214172    10.255928443     4.534734843
    247      0   1 -0.550000     3.013860271     9.249498216    21.907664138
    248      0   1 -0.550000     8.693350299    10.007444221    15.346799678
    249      0   1 -0.550000     6.236714231     9.609029850    18.733975522
    250      0   1 -0.550000     1.891200079    13.487482150    18.789926089
    251      0   1 -0.550000     7.607399420    14.304694123    23.688061560
    252      0   1 -0.550000     4.687261657    14.066246788    15.665737939
    253      0   1 -0.550000     5.084576706    12.688352733    23.981587559
    254      0   1 -0.550000     2.213289978    13.227844817    15.760542745
    255      0   1 -0.550000     7.982584221    12.816602156    19.477777532
    256      0   1 -0.550000     2.491476017    10.899520292    20.022174251
    257      0   1 -0.550000     8.649717897    10.457744569    12.745413137
    258      0   1 -0.550000     5.755949540    11.068832031    16.651597214
    259      0   1 -0.550000     3.349979500    11.906768339    22.179226494
    260      0   1 -0.550000     5.455577032    12.108092101    19.139034876
    261      0   1 -0.550000     1.273572081    11.136287735    18.002259077
    262      0   1 -0.550000     7.789325056    11.555491028    23.903253825
    263      0   1 -0.550000     4.099226459    11.692616715    14.751835146
    264      0   1 -0.550000     6.531875485    10.904542507    14.173971902
    265      0   1 -0.550000     1.018450713    10.940126626    22.148355270
    266      0   1 -0.550000     3.798349576    10.265098038    17.987087377
    267      0   1 -0.550000     0.074955420    13.166000517    17.067664519
    268      0   1 -0.550000     6.473693649    12.606529855    21.658719268
    269      0   1 -0.550000     3.349025661    13.845126945    13.536821028
    270      0   3  1.100000     8.127869769    10.962884202    14.160093909
    271      0   3  1.100000     2.473636347    10.730982189    21.546326792
    272      0   3  1.100000     5.318050867    10.790104856    18.160274901
    273      0   3  1.100000     0.674772492    12.567220695    18.358244215
    274      0   3  1.100000     6.735813125    12.821039338    23.325592695
    275      0   3  1.100000     3.579218696    13.193795770    14.946823356
    276      0   3  1.100000     3.364075945    12.694961793    23.557738325
    277      0   3  1.100000     0.649924390    13.542192854    15.682853379
    278      0   3  1.100000     6.471160695    13.065282289    20.022332759
    279      0   3  1.100000     2.347208583    10.192861295    18.653957396
    280      0   3  1.100000     8.548110293    10.060113561    23.531569944
    281      0   3  1.100000     5.287747526    10.700814783    15.154590413
    282      0   1 -0.550000     3.469341851    14.959834114    11.228380791
    283      0   1 -0.550000     9.153972983    14.880111792     3.698410829
    284      0   1 -0.550000     6.457486120    14.580413857     7.250405092
    285      0   1 -0.550000     1.650633102    19.839539261     7.366662537
    286      0   1 -0.550000     7.847746395    18.776807974    11.353947068
    287      0   1 -0.550000     4.537177449    18.665531069     2.095264843
    288      0   1 -0.550000     5.366983707    18.120942182    11.755830991
    289      0   1 -0.550000     2.498840842    18.357823686     3.715562495
    290      0   1 -0.550000     8.132688709    17.730660185     7.895389031
    291      0   1 -0.550000     2.766627059    15.433328268     8.773514233
    292      0   2 -0.675000     8.996161565    15.595953367     1.173222204
    293      0   1 -0.550000     5.991406466    15.951238415     5.096652237
    294      0   1 -0.550000     3.178190564    17.444797945    10.559326635
    295      0   1 -0.550000     5.656530786    17.096223463     7.363689703
    296      0   1 -0.550000     2.227668859    17.252336531     6.876219702
    297      0   1 -0.550000     6.998362459    16.371957250    10.741182242
    298      0   1 -0.550000     4.161742685    16.293655920     3.321356184
    299      0   1 -0.550000     6.805186606    15.764502355     2.676706728
    300      0   1 -0.550000     1.051109120    15.982321444    10.644167517
    301      0   1 -0.550000     4.010594181    15.318199039     6.558586039
    302      0   1 -0.550000     0.565466916    18.723373046     5.470857158
    303      0   1 -0.550000     6.257273515    18.517619809     9.368296402
    304      0   3  1.100000     8.427257992    15.893752460     2.672278906
    305      0   3  1.100000     2.609593724    15.955007451    10.295374411
    306      0   3  1.100000     5.544597438    15.722082555     6.586947724
    307      0   3  1.100000     1.081103723    18.411283990     6.918790403
    308      0   3  1.100000     6.616615941    17.932686795    10.810013665
    309      0   3  1.100000     3.383291157    17.550290003     2.650214370
    310      0   3  1.100000     3.816034777    18.414782971    11.700786924
    311      0   3  1.100000     0.916414658    18.436333989     3.981493038
    312      0   3  1.100000     6.628898149    18.246397567     7.856438788
    313      0   3  1.100000     2.595020048    15.687432290     7.189371173
    314      0   3  1.100000     8.048587479    15.339716462    11.367637299
    315      0   3  1.100000     5.549595490    15.506023645     3.657593107
    316      0   4  0.400000     9.344026350    16.401783043     0.837857533
    317      0   1 -0.550000     2.763896991    14.244739967    23.382577337
    318      0   1 -0.550000     8.843850275    15.025020319    15.191620864
    319      0   1 -0.550000     6.037972664    14.642138008    19.738330581
    320      0   1 -0.550000     2.019169896    18.412144328    18.848854502
    321      0   1 -0.550000     7.556447038    19.288014574    23.482501908
    322      0   1 -0.550000     4.864546371    19.067941341    15.093728615
    323      0   1 -0.550000     5.267560624    17.985571652    23.577880987
    324      0   1 -0.550000     2.391075168    18.462289079    15.698203816
    325      0   1 -0.550000     7.805830445    17.634725774    19.554590228
    326      0   1 -0.550000     2.486396826    14.830115723    20.879558106
    327      0   1 -0.550000     8.422140726    15.892451547    12.816598632
    328      0   1 -0.550000     5.789205565    15.781253347    17.223385450
    329      0   1 -0.550000     3.171662470    16.785082855    22.466650465
    330      0   1 -0.550000     5.309676237    17.209476162    19.351976795
    331      0   1 -0.550000     1.127902101    15.968785855    18.849042316
    332      0   1 -0.550000     7.420069074    16.764099673    22.540632031
    333      0   1 -0.550000     4.072639490    16.554116987    15.258014005
    334      0   1 -0.550000     6.432305269    15.648955356    14.582740640
    335      0   1 -0.550000     0.672553242    15.889095871    22.520535205
    336      0   1 -0.550000     3.679566778    15.321433785    18.586222765
    337      0   1 -0.550000     0.241786625    17.884437213    17.173714253
    338      0   1 -0.550000     6.258555793    18.722996622    21.286303231
    339      0   1 -0.550000     3.238166990    18.121668462    13.202289935
    340      0   3  1.100000     7.964264960    16.031157974    14.344883878
    341      0   3  1.100000     2.254325898    15.440562809    22.344373576
    342      0   3  1.100000     5.227183978    15.714961058    18.751484492
    343      0   3  1.100000     0.728004143    17.520645737    18.675395834
    344      0   3  1.100000     6.645890873    18.180446765    22.738707459
    345      0   3  1.100000     3.648811214    18.052723540    14.791945232
    346      0   3  0.725000     3.657274066    17.998911477    23.418472157
    347      0   3  1.100000     0.794271671    18.446056620    15.744886187
    348      0   3  1.100000     6.377181779    18.336236212    19.739719735
    349      0   3  1.100000     2.293197583    14.937915035    19.291658902
    350      0   3  1.100000     8.486274667    15.672978211    23.086283431
    351      0   3  1.100000     5.270464446    15.545691310    15.695228033
    352      0   1 -0.550000     3.630489672    19.958130907    11.240958767
    353      0   1 -0.550000     8.840849101    19.830531787     3.689793974
    354      0   1 -0.550000     6.526766987    19.535546067     6.875539860
    355      0   1 -0.550000     1.616124758    24.687119657     6.958646927
    356      0   1 -0.550000     7.797119803    23.666348400    10.625460450
    357      0   1 -0.550000     5.039461522    23.697992038     3.387794572
    358      0   1 -0.550000     5.351158804    23.121186446    11.327780354
    359      0   1 -0.550000     2.809139189    23.423090360     2.064510530
    360      0   1 -0.550000     8.351571119    22.721045796     7.159206764
    361      0   1 -0.550000     3.352321197    21.048067850     8.776039543
    362      0   1 -0.550000    10.154112181    19.354687289     1.699089596
    363      0   1 -0.550000     5.800357959    19.881155066     4.285056504
    364      0   1 -0.550000     2.833389793    22.434535168    10.893844309
    365      0   1 -0.550000     5.993748839    21.966798444     6.215634891
    366      0   1 -0.550000     2.555162479    22.256097981     6.469991495
    367      0   1 -0.550000     7.103833693    21.196331386    11.022812026
    368      0   1 -0.550000     4.604444875    21.306986809     2.278085887
    369      0   1 -0.550000     7.117069798    19.991572536     1.883889279
    370      0   1 -0.550000     1.256168162    20.437481413    10.305670819
    371      0   1 -0.550000     4.076445888    20.159117781     6.382806332
    372      0   1 -0.550000     1.529667827    23.815284181     4.414223379
    373      0   1 -0.550000     6.317847590    22.365246296     8.862152042
    374      0   2 -0.675000     5.156234375    23.441036912     0.810277833
    375      0   3  1.100000     8.780883126    20.333185419     2.214856674
    376      0   3  1.100000     2.780793567    20.956840501    10.294116251