LAMMPS (20 Nov 2019)
# LAMMPS input file
# Bulk TIP4P/2005 water system
# author : Simon Gravelle
############### variables
variable pre equal 1 # desired pressure (Atm)
variable tem equal 293.15 # desired temperature (K)
############### main parameters
units real # style of units (A, fs, Kcal/mol)
atom_style full # molecular + charge
bond_style harmonic
angle_style harmonic
boundary p p p # periodic boundary conditions
pair_style lj/cut/tip4p/long 1 2 1 1 0.105 10 10 # cut-off 1 nm
kspace_style pppm/tip4p 1.0e-4
pair_modify mix arithmetic tail yes # eij = sqrt(ei*ej), dij = 0.5*(di+dj)
############### import positions and parameters
read_data conf.data
  orthogonal box = (-11.4085 -11.4085 -11.4085) to (11.4085 11.4085 11.4085)
  2 by 1 by 2 MPI processor grid
  reading atoms ...
  1200 atoms
  reading velocities ...
  1200 velocities
  scanning bonds ...
  2 = max bonds/atom
  scanning angles ...
  1 = max angles/atom
  reading bonds ...
  800 bonds
  reading angles ...
  400 angles
  2 = max # of 1-2 neighbors
  1 = max # of 1-3 neighbors
  1 = max # of 1-4 neighbors
  2 = max # of special neighbors
  special bonds CPU = 0.000296686 secs
  read_data CPU = 0.00489035 secs
include PARM.lammps
############### mass parameters
mass 		1 15.9994 # O water TIP4P/2005
mass 		2 1.008 # H water TIP4P/2005
############### pair coeffs
pair_coeff 	1 1 0.18481 3.165 # TIP4P/2005
pair_coeff 	2 2 0.0 0.0 # TIP4P/2005
############### bond coeffs
bond_coeff 	1 0 0.9572 # TIP4P/2005
############### angle coeffs
angle_coeff 	1 0 104.52 # TIP4P/2005
############### groups # descriptions
group wat type 1 2 # water
1200 atoms in group wat
group hyd type 2 # hydrogen
800 atoms in group hyd
############### dynamics
timestep 2 # (fs)
fix myshk wat shake 1.0e-5 200 0 b 1 a 1 # shake with increases precision
  0 = # of size 2 clusters
  0 = # of size 3 clusters
  0 = # of size 4 clusters
  400 = # of frozen angles
  find clusters CPU = 0.000229508 secs
fix mynvt all nvt temp ${tem} ${tem} 100 # nvt equilibrium
fix mynvt all nvt temp 293.15 ${tem} 100 
fix mynvt all nvt temp 293.15 293.15 100 
############### output
dump dp1 wat xtc 500 traj.xtc
thermo 1000
############### run
run 500000 # 200 ps
PPPM initialization ...
  extracting TIP4P info from pair style
  using 12-bit tables for long-range coulomb (src/kspace.cpp:323)
  G vector (1/distance) = 0.283588
  grid = 15 15 15
  stencil order = 5
  estimated absolute RMS force accuracy = 0.01686
  estimated relative force accuracy = 5.07734e-05
  using double precision FFTW3
  3d grid and FFT values/proc = 4312 960
Neighbor list info ...
  update every 1 steps, delay 10 steps, check yes
  max neighbors/atom: 2000, page size: 100000
  master list distance cutoff = 12.21
  ghost atom cutoff = 12.21
  binsize = 6.105, bins = 4 4 4
  1 neighbor lists, perpetual/occasional/extra = 1 0 0
  (1) pair lj/cut/tip4p/long, perpetual
      attributes: half, newton on
      pair build: half/bin/newton
      stencil: half/bin/3d/newton
      bin: standard
Per MPI rank memory allocation (min/avg/max) = 8.828 | 8.843 | 8.853 Mbytes
Step Temp E_pair E_mol TotEng Press 
       0    299.67103   -4814.3383            0   -4100.6216   -98.701453 
    1000    301.61899   -4824.5934            0   -4106.2374    366.21837 
    2000    299.46456   -4828.2999            0    -4115.075    314.37518 
    3000    284.95175   -4799.8544            0   -4121.1942   -463.71559 
    4000    308.54377   -4789.0311            0   -4054.1825   -611.17024 
    5000    287.86745   -4729.4425            0    -4043.838    284.67521 
    6000     289.1772   -4789.9927            0   -4101.2688    408.04852 
    7000    285.90967     -4812.34            0   -4131.3983    1526.1728 
    8000    278.73655   -4738.8741            0   -4075.0165    88.176535 
    9000     300.0555   -4720.8227            0   -4006.1903     139.9551 
   10000    299.16795   -4770.8667            0   -4058.3482   -93.099398 
   11000    288.48869    -4736.429            0    -4049.345    1137.2037 
   12000    298.08683   -4795.9031            0   -4085.9594    2.5625467 
   13000     298.5943   -4774.9163            0   -4063.7641    476.63035 
   14000    283.23702    -4796.773            0   -4122.1967   -511.79761 
   15000    323.62117   -4757.0121            0   -3986.2542   -298.80134 
   16000    299.52589   -4721.8703            0   -4008.4993   -78.749509 
   17000    291.69324   -4795.2936            0   -4100.5773    1790.1137 
   18000     291.9821    -4729.817            0   -4034.4128    1095.9016 
   19000    293.80644   -4810.9487            0   -4111.1995    974.24286 
   20000    297.05936   -4788.2338            0   -4080.7372   -228.64274 
   21000    290.42274   -4771.5952            0   -4079.9049    550.21293 
   22000    294.77518   -4812.4115            0   -4110.3551    523.66173 
   23000    291.44935   -4827.0363            0   -4132.9009   -163.86368 
   24000    290.82132   -4794.5142            0   -4101.8746    260.73276 
   25000    303.56922   -4804.0775            0   -4081.0767   -166.29297 
   26000    296.77602   -4804.3598            0   -4097.5381   -1159.9419 
   27000    281.67794   -4762.4533            0   -4091.5902      579.384 
   28000    287.03579   -4717.1488            0   -4033.5251    1718.5083 
   29000    312.25346   -4793.4224            0   -4049.7386    50.126155 
   30000    297.56803   -4784.3212            0   -4075.6132    66.163111 
   31000    295.01789   -4813.5752            0   -4110.9407    822.12477 
   32000    311.83045   -4790.5599            0   -4047.8836   -317.81391 
   33000    289.59262   -4785.5705            0   -4095.8572    98.728107 
   34000    293.81493   -4802.5791            0   -4102.8097    132.10908 
   35000    299.21827   -4751.7454            0   -4039.1071    348.59673 
   36000    291.40793    -4740.614            0   -4046.5772    1270.5667 
   37000     278.6402   -4798.4297            0   -4134.8015   -4.5714108 
   38000    305.11532   -4815.5044            0   -4088.8212    173.69161 
   39000    285.55251   -4796.5938            0   -4116.5027    1740.9821 
   40000     308.0344   -4759.1353            0   -4025.4998    485.41549 
   41000    280.51064    -4724.912            0   -4056.8291    194.02041 
   42000    308.30459   -4784.2952            0   -4050.0163    256.62666 
   43000    283.05789    -4785.585            0   -4111.4352   -683.14746 
   44000    281.87499   -4816.2251            0   -4144.8927      139.643 
   45000    292.62714   -4758.7671            0   -4061.8266    932.81433 
   46000    293.16714   -4737.6039            0   -4039.3774    348.05724 
   47000    293.58274   -4789.8641            0   -4090.6477    163.19868 
   48000    288.72773   -4891.0643            0   -4203.4109    -934.9921 
   49000    283.52922    -4803.058            0   -4127.7857   -569.84764 
   50000    288.00556   -4812.6906            0   -4126.7572    187.65869 
   51000    298.75202   -4783.4034            0   -4071.8755   -82.911967 
   52000    307.87063   -4759.3643            0   -4026.1189    171.50559 
   53000    292.33119   -4806.3959            0   -4110.1602    259.68096 
   54000    301.45748   -4749.2238            0   -4031.2524     106.4591 
   55000    322.51065   -4701.4849            0   -3933.3718    37.161106 
   56000    301.03931    -4762.346            0   -4045.3706   -219.12423 
   57000     287.4211   -4766.2504            0    -4081.709    439.53011 
   58000    285.44422   -4792.3251            0   -4112.4919   -16.015049 
   59000     287.0772   -4819.6157            0   -4135.8933    582.73347 
   60000    302.13104   -4742.0111            0   -4022.4355   -182.03807 
   61000    283.72627    -4786.548            0   -4110.8064   -507.11192 
   62000    296.22057   -4740.4791            0   -4034.9803     464.1973 
   63000     304.9063   -4782.3667            0   -4056.1813    512.42652 
   64000    288.38987   -4776.1227            0    -4089.274     194.3692 
   65000    295.65773   -4840.6518            0   -4136.4935    1492.0775 
   66000    294.93898   -4838.6077            0   -4136.1612    223.31853 
   67000    315.26533   -4761.3701            0   -4010.5129    220.07582 
   68000    285.58357   -4766.8883            0   -4086.7233    827.71094 
   69000    288.55519   -4764.1528            0   -4076.9104   -623.85204 
   70000    306.84819    -4739.238            0   -4008.4277    1681.9941 
   71000     284.0977   -4756.5154            0   -4079.8892   -1333.7603 
   72000    302.21377   -4854.6568            0   -4134.8842   -311.33056 
   73000    283.04565   -4834.6411            0   -4160.5205   -509.62429 
   74000    282.73605   -4807.1926            0   -4133.8094    263.62667 
   75000    293.32486   -4818.8808            0   -4120.2786   -36.146908 
   76000     284.3567   -4803.0519            0   -4125.8089     2006.302 
   77000    294.16369   -4779.2804            0   -4078.6804    299.38216 
   78000    290.16603   -4813.7486            0   -4122.6697    304.05972 
   79000    289.51289   -4759.6443            0   -4070.1209    1873.5466 
   80000    291.30822   -4811.3162            0   -4117.5169    737.56958 
   81000    281.38395   -4777.1322            0   -4106.9692    185.67476 
   82000    294.53897   -4713.0044            0   -4011.5106   -245.12961 
   83000    289.47714   -4773.1099            0   -4083.6717    275.02302 
   84000    287.08749   -4763.9598            0   -4080.2129    9.2773646 
   85000    275.83335   -4789.9912            0   -4133.0479    621.97662 
   86000    303.96665   -4797.4772            0   -4073.5298    330.64725 
   87000    295.43802   -4820.6522            0   -4117.0171    1282.8371 
   88000    304.56796   -4777.3359            0   -4051.9563    941.94626 
   89000    285.62163   -4754.8032            0   -4074.5475   -1088.2743 
   90000    296.24902   -4810.8533            0   -4105.2867    725.95491 
   91000    294.45852   -4771.4063            0   -4070.1041   -139.64968 
   92000    299.12176   -4838.7117            0   -4126.3032    262.54498 
   93000    285.32797   -4823.4297            0   -4143.8734   -418.48551 
   94000    285.25593   -4804.9335            0   -4125.5488    899.24311 
   95000    295.36891   -4803.8913            0   -4100.4208    1080.8402 
   96000    297.35589   -4798.9949            0   -4090.7921    517.88963 
   97000    290.80944   -4816.3079            0   -4123.6966    99.428513 
   98000    292.53077    -4777.581            0     -4080.87   -1451.2451 
   99000    273.93749   -4818.4779            0     -4166.05    402.14505 
  100000    306.74717   -4764.3205            0   -4033.7508    705.44918 
  101000    293.54242   -4798.9586            0   -4099.8382   -559.27631 
  102000    289.75526   -4767.2489            0   -4077.1482   -739.71044 
  103000    293.32415    -4762.737            0   -4064.1365   -112.20474 
  104000    292.77037   -4758.8784            0   -4061.5968   -555.44461 
  105000     291.3794   -4704.5061            0   -4010.5373    705.25388 
  106000    297.32388   -4735.6949            0   -4027.5684   -223.71866 
  107000    299.57229    -4775.938            0   -4062.4565    766.78503 
  108000     296.4401   -4872.1487            0    -4166.127    601.23243 
  109000     295.3456   -4811.5277            0   -4108.1128    759.51554 
  110000    282.05218   -4792.9228            0   -4121.1683   -1291.4159 
  111000     310.1202   -4759.8583            0   -4021.2552    198.39381 
  112000    289.60644   -4753.7618            0   -4064.0157    -936.4222 
  113000     302.2985   -4830.3762            0   -4110.4017    350.02301 
  114000    304.64852   -4789.2128            0   -4063.6414   -426.53697 
  115000     304.5677   -4749.6767            0   -4024.2978    213.08169 
  116000    286.07135   -4805.3755            0   -4124.0487   -65.156275 
  117000    298.35037   -4811.3943            0    -4100.823    213.59603 
  118000    296.49849   -4770.9505            0   -4064.7898    740.09764 
  119000    287.38164   -4825.8131            0   -4141.3656    730.34774 
  120000    291.70944   -4809.3979            0   -4114.6431   -862.86423 
  121000    291.89124   -4769.5133            0   -4074.3255   -594.85106 
  122000    297.07638   -4776.1501            0    -4068.613    406.60808 
  123000    290.41935   -4749.5143            0    -4057.832    289.52347 
  124000    287.24388   -4772.3195            0   -4088.2002    732.88474 
  125000    297.17795   -4792.2196            0   -4084.4406    60.936681 
  126000      296.316   -4802.8734            0   -4097.1473    648.90898 
  127000    285.78696   -4788.3338            0   -4107.6843    538.90593 
  128000    293.24716   -4791.0125            0   -4092.5953    58.420041 
  129000    289.82942   -4781.3647            0   -4091.0875    1453.8578 
  130000    281.76395   -4712.0503            0   -4040.9824   -354.60062 
  131000    303.44863    -4774.715            0   -4052.0013    818.40271 
  132000    281.71728    -4757.732            0   -4086.7752    1112.6421 
  133000    277.94905   -4755.6489            0   -4093.6668    96.547843 
  134000    304.41941   -4771.5119            0   -4046.4862    -667.1413 
  135000    294.86833   -4798.0362            0    -4095.758    1134.4863 
  136000    289.86067   -4780.1715            0   -4089.8198    716.33471 
  137000    285.98392   -4758.9578            0   -4077.8393    580.80178 
  138000    277.65119    -4810.292            0   -4149.0193    30.300882 
  139000    293.46404   -4801.1285            0   -4102.1948    236.84563 
  140000    282.30612   -4807.0193            0     -4134.66    12.848761 
  141000    303.64809   -4774.4818            0   -4051.2931    563.88872 
  142000    303.44908   -4741.0138            0    -4018.299     1310.413 
  143000     283.0384   -4778.1063            0   -4104.0031    391.82003 
  144000     309.9401   -4733.3608            0   -3995.1866   -93.762556 
  145000    301.14074   -4803.0758            0   -4085.8588    299.39889 
  146000    286.92337   -4833.8547            0   -4150.4987       75.256 
  147000    296.20742    -4777.358            0   -4071.8905    444.58776 
  148000    293.02395    -4764.375            0   -4066.4895    -300.7321 
  149000    280.38168   -4789.1602            0   -4121.3843   -860.40962 
  150000    302.81221   -4756.1002            0   -4034.9023    96.350693 
  151000    286.87992    -4783.797            0   -4100.5445    672.41517 
  152000    283.79386    -4789.241            0   -4113.3385    1005.2992 
  153000    295.99076   -4800.7784            0   -4095.8269   -320.53353 
  154000    289.75365    -4842.005            0   -4151.9082    210.51149 
  155000    278.68889   -4717.6379            0   -4053.8937    479.27518 
  156000    299.65117   -4811.5814            0   -4097.9121   -179.12234 
  157000    306.89982   -4769.3414            0   -4038.4082   -808.32257 
  158000    288.82428   -4840.6876            0   -4152.8043   -261.37901 
  159000     285.8096   -4731.7269            0   -4051.0235    1116.7007 
  160000      293.266   -4805.1672            0   -4106.7052    740.66226 
  161000    291.29944   -4839.6696            0   -4145.8913   -716.14261 
  162000    285.78058   -4752.2586            0   -4071.6243   -724.36163 
  163000     292.4434   -4806.8674            0   -4110.3646    862.64181 
  164000    300.06702   -4822.5861            0   -4107.9263    295.84575 
  165000    298.34117   -4734.7626            0   -4024.2132    706.80224 
  166000    301.41022   -4846.1175            0   -4128.2586   -285.35391 
  167000    295.89977    -4783.878            0   -4079.1432    -844.8913 
  168000    288.33497   -4740.2634            0   -4053.5454     592.6984 
  169000    308.31526   -4802.9742            0   -4068.6698    -180.0856 
  170000    296.46764    -4817.317            0   -4111.2297    663.97003 
  171000    284.00354   -4815.9964            0   -4139.5945    277.56404 
  172000    310.07087   -4776.5007            0    -4038.015    428.67162 
  173000    303.56953   -4719.9754            0   -3996.9738   -659.34551 
  174000    286.91208   -4799.5573            0   -4116.2282    715.75601 
  175000    280.07837   -4743.0014            0    -4075.948    533.99372 
  176000     299.8722   -4765.3284            0   -4051.1326    241.93268 
  177000    296.79028    -4737.654            0   -4030.7983   -656.20847 
  178000    291.77976   -4750.2448            0   -4055.3225    -505.9564 
  179000    291.20791   -4763.7889            0   -4070.2286     381.6801 
  180000    283.71261   -4796.7688            0   -4121.0598   -331.91285 
  181000    281.37263   -4775.3815            0   -4105.2455    1021.6202 
  182000    292.88712   -4811.6679            0   -4114.1083   -1321.9783 
  183000    292.31491   -4805.5461            0   -4109.3493    323.36606 
  184000    285.12274   -4751.4925            0    -4072.425   -47.097682 
  185000    289.88169   -4780.2115            0   -4089.8098    31.557453 
  186000    285.53467   -4735.0152            0   -4054.9666     26.97871 
  187000    294.54472   -4786.0258            0   -4084.5183   -586.84004 
  188000    289.85524   -4794.6812            0   -4104.3425    255.07552 
  189000    297.51332   -4818.8564            0   -4110.2786    1885.1276 
  190000    293.98466   -4734.7211            0   -4034.5475    241.08613 
  191000    288.54982   -4788.4108            0   -4101.1812    855.59925 
  192000    287.14351   -4774.9057            0   -4091.0255   -535.07767 
  193000    293.58216   -4772.6978            0   -4073.4828   -92.213285 
  194000    286.38533   -4771.7291            0   -4089.6545    421.72521 
  195000    285.39093   -4765.0955            0   -4085.3893    459.88201 
  196000    290.44356   -4851.2973            0   -4159.5574   -24.037812 
  197000    290.85328   -4807.9166            0   -4115.2008   -206.62276 
  198000    283.94761    -4803.248            0   -4126.9793    767.58829 
  199000    307.80639   -4837.0698            0   -4103.9774   -551.79127 
  200000    288.21656   -4801.7524            0   -4115.3165    976.87052 
  201000    296.34945   -4845.4655            0   -4139.6598    32.852152 
  202000    299.36249   -4804.6548            0    -4091.673    1234.3265 
  203000    286.16771   -4758.5817            0   -4077.0254   -518.77929 
  204000    307.62054   -4763.1719            0   -4030.5222    1019.0737 
  205000    298.30866   -4747.1873            0   -4036.7153    408.39026 
  206000    291.33242   -4800.2617            0   -4106.4048    715.69508 
  207000    280.39825   -4779.9156            0   -4112.1003    571.92735 
  208000    298.43963   -4816.1791            0   -4105.3952   -777.36349 
  209000    295.46475   -4822.9981            0   -4119.2994   -396.19594 
  210000    282.92144   -4786.8708            0    -4113.046    43.218136 
  211000    305.92305   -4815.8926            0   -4087.2857    242.93078 
  212000    295.35128   -4766.9814            0    -4063.553     177.6631 
  213000    285.87496    -4812.543            0    -4131.684   -332.61514 
  214000    287.39543   -4789.8493            0    -4105.369   -37.829014 
  215000    305.97569    -4764.317            0   -4035.5847    754.89561 
  216000    302.43973   -4803.3604            0   -4083.0496    1432.6785 
  217000    295.51672   -4805.0846            0   -4101.2621     1045.997 
  218000    300.83678   -4813.6657            0   -4097.1726   -3.0915048 
  219000    308.91123   -4782.6529            0   -4046.9291    378.70253 
  220000    304.06639    -4758.044            0   -4033.8591   -66.648087 
  221000    269.75186   -4789.9267            0   -4147.4676    25.333541 
  222000    270.71229   -4779.6205            0   -4134.8739    652.66675 
  223000    285.01638   -4808.2501            0   -4129.4359    821.37076 
  224000    294.18374   -4827.9975            0   -4127.3497    1054.9879 
  225000    300.29513   -4808.8824            0   -4093.6793    87.098893 
  226000     300.6225   -4756.3482            0   -4040.3654    1299.9365 
  227000    281.23071   -4744.7275            0   -4074.9295    767.64912 
  228000    303.54023     -4815.66            0   -4092.7282    1742.2754 
  229000    294.72313   -4828.7248            0   -4126.7924    715.56186 
  230000    284.09004   -4785.9859            0    -4109.378    348.35662 
  231000    270.73376   