ITEM: TIMESTEP
0
ITEM: NUMBER OF ATOMS
1200
ITEM: BOX BOUNDS pp pp pp
-1.3600000000000001e+01 1.3600000000000001e+01
-1.3600000000000001e+01 1.3600000000000001e+01
-1.3600000000000001e+01 1.3600000000000001e+01
ITEM: ATOMS id type xs ys zs
1 1 0.0588235 0.0588235 0.0588235
2 2 0.0940147 0.0588236 0.0588235
3 2 0.0500004 0.0928907 0.0588235
4 1 0.0588235 0.176471 0.0588235
5 2 0.0940147 0.176471 0.0588235
6 2 0.0500004 0.210538 0.0588235
25 1 0.176471 0.0588235 0.0588235
26 2 0.211662 0.0588236 0.0588235
27 2 0.167647 0.0928907 0.0588235
28 1 0.176471 0.176471 0.0588235
29 2 0.211662 0.176471 0.0588235
30 2 0.167647 0.210538 0.0588235
193 1 0.0588235 0.0588235 0.176471
194 2 0.0940147 0.0588236 0.176471
195 2 0.0500004 0.0928907 0.176471
196 1 0.0588235 0.176471 0.176471
197 2 0.0940147 0.176471 0.176471
198 2 0.0500004 0.210538 0.176471
217 1 0.176471 0.0588235 0.176471
218 2 0.211662 0.0588236 0.176471
219 2 0.167647 0.0928907 0.176471
220 1 0.176471 0.176471 0.176471
221 2 0.211662 0.176471 0.176471
222 2 0.167647 0.210538 0.176471
49 1 0.294118 0.0588235 0.0588235
50 2 0.329309 0.0588236 0.0588235
51 2 0.285295 0.0928907 0.0588235
52 1 0.294118 0.176471 0.0588235
53 2 0.329309 0.176471 0.0588235
54 2 0.285295 0.210538 0.0588235
73 1 0.411765 0.0588235 0.0588235
74 2 0.446956 0.0588236 0.0588235
75 2 0.402942 0.0928907 0.0588235
76 1 0.411765 0.176471 0.0588235
77 2 0.446956 0.176471 0.0588235
78 2 0.402942 0.210538 0.0588235
241 1 0.294118 0.0588235 0.176471
242 2 0.329309 0.0588236 0.176471
243 2 0.285295 0.0928907 0.176471
244 1 0.294118 0.176471 0.176471
245 2 0.329309 0.176471 0.176471
246 2 0.285295 0.210538 0.176471
265 1 0.411765 0.0588235 0.176471
266 2 0.446956 0.0588236 0.176471
267 2 0.402942 0.0928907 0.176471
268 1 0.411765 0.176471 0.176471
269 2 0.446956 0.176471 0.176471
270 2 0.402942 0.210538 0.176471
97 1 0.529412 0.0588235 0.0588235
98 2 0.564603 0.0588236 0.0588235
99 2 0.520589 0.0928907 0.0588235
100 1 0.529412 0.176471 0.0588235
101 2 0.564603 0.176471 0.0588235
102 2 0.520589 0.210538 0.0588235
121 1 0.647059 0.0588235 0.0588235
122 2 0.68225 0.0588236 0.0588235
123 2 0.638236 0.0928907 0.0588235
124 1 0.647059 0.176471 0.0588235
125 2 0.68225 0.176471 0.0588235
126 2 0.638236 0.210538 0.0588235
289 1 0.529412 0.0588235 0.176471
290 2 0.564603 0.0588236 0.176471
291 2 0.520589 0.0928907 0.176471
292 1 0.529412 0.176471 0.176471
293 2 0.564603 0.176471 0.176471
294 2 0.520589 0.210538 0.176471
313 1 0.647059 0.0588235 0.176471
314 2 0.68225 0.0588236 0.176471
315 2 0.638236 0.0928907 0.176471
316 1 0.647059 0.176471 0.176471
317 2 0.68225 0.176471 0.176471
318 2 0.638236 0.210538 0.176471
145 1 0.764706 0.0588235 0.0588235
146 2 0.799897 0.0588236 0.0588235
147 2 0.755883 0.0928907 0.0588235
148 1 0.764706 0.176471 0.0588235
149 2 0.799897 0.176471 0.0588235
150 2 0.755883 0.210538 0.0588235
169 1 0.882353 0.0588235 0.0588235
170 2 0.917544 0.0588236 0.0588235
171 2 0.87353 0.0928907 0.0588235
172 1 0.882353 0.176471 0.0588235
173 2 0.917544 0.176471 0.0588235
174 2 0.87353 0.210538 0.0588235
337 1 0.764706 0.0588235 0.176471
338 2 0.799897 0.0588236 0.176471
339 2 0.755883 0.0928907 0.176471
340 1 0.764706 0.176471 0.176471
341 2 0.799897 0.176471 0.176471
342 2 0.755883 0.210538 0.176471
361 1 0.882353 0.0588235 0.176471
362 2 0.917544 0.0588236 0.176471
363 2 0.87353 0.0928907 0.176471
364 1 0.882353 0.176471 0.176471
365 2 0.917544 0.176471 0.176471
366 2 0.87353 0.210538 0.176471
7 1 0.0588235 0.294118 0.0588235
8 2 0.0940147 0.294118 0.0588235
9 2 0.0500004 0.328185 0.0588235
10 1 0.0588235 0.411765 0.0588235
11 2 0.0940147 0.411765 0.0588235
12 2 0.0500004 0.445832 0.0588235
31 1 0.176471 0.294118 0.0588235
32 2 0.211662 0.294118 0.0588235
33 2 0.167647 0.328185 0.0588235
34 1 0.176471 0.411765 0.0588235
35 2 0.211662 0.411765 0.0588235
36 2 0.167647 0.445832 0.0588235
199 1 0.0588235 0.294118 0.176471
200 2 0.0940147 0.294118 0.176471
201 2 0.0500004 0.328185 0.176471
202 1 0.0588235 0.411765 0.176471
203 2 0.0940147 0.411765 0.176471
204 2 0.0500004 0.445832 0.176471
223 1 0.176471 0.294118 0.176471
224 2 0.211662 0.294118 0.176471
225 2 0.167647 0.328185 0.176471
226 1 0.176471 0.411765 0.176471
227 2 0.211662 0.411765 0.176471
228 2 0.167647 0.445832 0.176471
55 1 0.294118 0.294118 0.0588235
56 2 0.329309 0.294118 0.0588235
57 2 0.285295 0.328185 0.0588235
58 1 0.294118 0.411765 0.0588235
59 2 0.329309 0.411765 0.0588235
60 2 0.285295 0.445832 0.0588235
79 1 0.411765 0.294118 0.0588235
80 2 0.446956 0.294118 0.0588235
81 2 0.402942 0.328185 0.0588235
82 1 0.411765 0.411765 0.0588235
83 2 0.446956 0.411765 0.0588235
84 2 0.402942 0.445832 0.0588235
247 1 0.294118 0.294118 0.176471
248 2 0.329309 0.294118 0.176471
249 2 0.285295 0.328185 0.176471
250 1 0.294118 0.411765 0.176471
251 2 0.329309 0.411765 0.176471
252 2 0.285295 0.445832 0.176471
271 1 0.411765 0.294118 0.176471
272 2 0.446956 0.294118 0.176471
273 2 0.402942 0.328185 0.176471
274 1 0.411765 0.411765 0.176471
275 2 0.446956 0.411765 0.176471
276 2 0.402942 0.445832 0.176471
103 1 0.529412 0.294118 0.0588235
104 2 0.564603 0.294118 0.0588235
105 2 0.520589 0.328185 0.0588235
106 1 0.529412 0.411765 0.0588235
107 2 0.564603 0.411765 0.0588235
108 2 0.520589 0.445832 0.0588235
127 1 0.647059 0.294118 0.0588235
128 2 0.68225 0.294118 0.0588235
129 2 0.638236 0.328185 0.0588235
130 1 0.647059 0.411765 0.0588235
131 2 0.68225 0.411765 0.0588235
132 2 0.638236 0.445832 0.0588235
295 1 0.529412 0.294118 0.176471
296 2 0.564603 0.294118 0.176471
297 2 0.520589 0.328185 0.176471
298 1 0.529412 0.411765 0.176471
299 2 0.564603 0.411765 0.176471
300 2 0.520589 0.445832 0.176471
319 1 0.647059 0.294118 0.176471
320 2 0.68225 0.294118 0.176471
321 2 0.638236 0.328185 0.176471
322 1 0.647059 0.411765 0.176471
323 2 0.68225 0.411765 0.176471
324 2 0.638236 0.445832 0.176471
151 1 0.764706 0.294118 0.0588235
152 2 0.799897 0.294118 0.0588235
153 2 0.755883 0.328185 0.0588235
154 1 0.764706 0.411765 0.0588235
155 2 0.799897 0.411765 0.0588235
156 2 0.755883 0.445832 0.0588235
175 1 0.882353 0.294118 0.0588235
176 2 0.917544 0.294118 0.0588235
177 2 0.87353 0.328185 0.0588235
178 1 0.882353 0.411765 0.0588235
179 2 0.917544 0.411765 0.0588235
180 2 0.87353 0.445832 0.0588235
343 1 0.764706 0.294118 0.176471
344 2 0.799897 0.294118 0.176471
345 2 0.755883 0.328185 0.176471
346 1 0.764706 0.411765 0.176471
347 2 0.799897 0.411765 0.176471
348 2 0.755883 0.445832 0.176471
367 1 0.882353 0.294118 0.176471
368 2 0.917544 0.294118 0.176471
369 2 0.87353 0.328185 0.176471
370 1 0.882353 0.411765 0.176471
371 2 0.917544 0.411765 0.176471
372 2 0.87353 0.445832 0.176471
385 1 0.0588235 0.0588235 0.294118
386 2 0.0940147 0.0588236 0.294118
387 2 0.0500004 0.0928907 0.294118
388 1 0.0588235 0.176471 0.294118
389 2 0.0940147 0.176471 0.294118
390 2 0.0500004 0.210538 0.294118
409 1 0.176471 0.0588235 0.294118
410 2 0.211662 0.0588236 0.294118
411 2 0.167647 0.0928907 0.294118
412 1 0.176471 0.176471 0.294118
413 2 0.211662 0.176471 0.294118
414 2 0.167647 0.210538 0.294118
577 1 0.0588235 0.0588235 0.411765
578 2 0.0940147 0.0588236 0.411765
579 2 0.0500004 0.0928907 0.411765
580 1 0.0588235 0.176471 0.411765
581 2 0.0940147 0.176471 0.411765
582 2 0.0500004 0.210538 0.411765
601 1 0.176471 0.0588235 0.411765
602 2 0.211662 0.0588236 0.411765
603 2 0.167647 0.0928907 0.411765
604 1 0.176471 0.176471 0.411765
605 2 0.211662 0.176471 0.411765
606 2 0.167647 0.210538 0.411765
433 1 0.294118 0.0588235 0.294118
434 2 0.329309 0.0588236 0.294118
435 2 0.285295 0.0928907 0.294118
436 1 0.294118 0.176471 0.294118
437 2 0.329309 0.176471 0.294118
438 2 0.285295 0.210538 0.294118
457 1 0.411765 0.0588235 0.294118
458 2 0.446956 0.0588236 0.294118
459 2 0.402942 0.0928907 0.294118
460 1 0.411765 0.176471 0.294118
461 2 0.446956 0.176471 0.294118
462 2 0.402942 0.210538 0.294118
625 1 0.294118 0.0588235 0.411765
626 2 0.329309 0.0588236 0.411765
627 2 0.285295 0.0928907 0.411765
628 1 0.294118 0.176471 0.411765
629 2 0.329309 0.176471 0.411765
630 2 0.285295 0.210538 0.411765
649 1 0.411765 0.0588235 0.411765
650 2 0.446956 0.0588236 0.411765
651 2 0.402942 0.0928907 0.411765
652 1 0.411765 0.176471 0.411765
653 2 0.446956 0.176471 0.411765
654 2 0.402942 0.210538 0.411765
481 1 0.529412 0.0588235 0.294118
482 2 0.564603 0.0588236 0.294118
483 2 0.520589 0.0928907 0.294118
484 1 0.529412 0.176471 0.294118
485 2 0.564603 0.176471 0.294118
486 2 0.520589 0.210538 0.294118
505 1 0.647059 0.0588235 0.294118
506 2 0.68225 0.0588236 0.294118
507 2 0.638236 0.0928907 0.294118
508 1 0.647059 0.176471 0.294118
509 2 0.68225 0.176471 0.294118
510 2 0.638236 0.210538 0.294118
673 1 0.529412 0.0588235 0.411765
674 2 0.564603 0.0588236 0.411765
675 2 0.520589 0.0928907 0.411765
676 1 0.529412 0.176471 0.411765
677 2 0.564603 0.176471 0.411765
678 2 0.520589 0.210538 0.411765
697 1 0.647059 0.0588235 0.411765
698 2 0.68225 0.0588236 0.411765
699 2 0.638236 0.0928907 0.411765
700 1 0.647059 0.176471 0.411765
701 2 0.68225 0.176471 0.411765
702 2 0.638236 0.210538 0.411765
529 1 0.764706 0.0588235 0.294118
530 2 0.799897 0.0588236 0.294118
531 2 0.755883 0.0928907 0.294118
532 1 0.764706 0.176471 0.294118
533 2 0.799897 0.176471 0.294118
534 2 0.755883 0.210538 0.294118
553 1 0.882353 0.0588235 0.294118
554 2 0.917544 0.0588236 0.294118
555 2 0.87353 0.0928907 0.294118
556 1 0.882353 0.176471 0.294118
557 2 0.917544 0.176471 0.294118
558 2 0.87353 0.210538 0.294118
721 1 0.764706 0.0588235 0.411765
722 2 0.799897 0.0588236 0.411765
723 2 0.755883 0.0928907 0.411765
724 1 0.764706 0.176471 0.411765
725 2 0.799897 0.176471 0.411765
726 2 0.755883 0.210538 0.411765
745 1 0.882353 0.0588235 0.411765
746 2 0.917544 0.0588236 0.411765
747 2 0.87353 0.0928907 0.411765
748 1 0.882353 0.176471 0.411765
749 2 0.917544 0.176471 0.411765
750 2 0.87353 0.210538 0.411765
391 1 0.0588235 0.294118 0.294118
392 2 0.0940147 0.294118 0.294118
393 2 0.0500004 0.328185 0.294118
394 1 0.0588235 0.411765 0.294118
395 2 0.0940147 0.411765 0.294118
396 2 0.0500004 0.445832 0.294118
415 1 0.176471 0.294118 0.294118
416 2 0.211662 0.294118 0.294118
417 2 0.167647 0.328185 0.294118
418 1 0.176471 0.411765 0.294118
419 2 0.211662 0.411765 0.294118
420 2 0.167647 0.445832 0.294118
583 1 0.0588235 0.294118 0.411765
584 2 0.0940147 0.294118 0.411765
585 2 0.0500004 0.328185 0.411765
586 1 0.0588235 0.411765 0.411765
587 2 0.0940147 0.411765 0.411765
588 2 0.0500004 0.445832 0.411765
607 1 0.176471 0.294118 0.411765
608 2 0.211662 0.294118 0.411765
609 2 0.167647 0.328185 0.411765
610 1 0.176471 0.411765 0.411765
611 2 0.211662 0.411765 0.411765
612 2 0.167647 0.445832 0.411765
439 1 0.294118 0.294118 0.294118
440 2 0.329309 0.294118 0.294118
441 2 0.285295 0.328185 0.294118
442 1 0.294118 0.411765 0.294118
443 2 0.329309 0.411765 0.294118
444 2 0.285295 0.445832 0.294118
463 1 0.411765 0.294118 0.294118
464 2 0.446956 0.294118 0.294118
465 2 0.402942 0.328185 0.294118
466 1 0.411765 0.411765 0.294118
467 2 0.446956 0.411765 0.294118
468 2 0.402942 0.445832 0.294118
631 1 0.294118 0.294118 0.411765
632 2 0.329309 0.294118 0.411765
633 2 0.285295 0.328185 0.411765
634 1 0.294118 0.411765 0.411765
635 2 0.329309 0.411765 0.411765
636 2 0.285295 0.445832 0.411765
655 1 0.411765 0.294118 0.411765
656 2 0.446956 0.294118 0.411765
657 2 0.402942 0.328185 0.411765
658 1 0.411765 0.411765 0.411765
659 2 0.446956 0.411765 0.411765
660 2 0.402942 0.445832 0.411765
487 1 0.529412 0.294118 0.294118
488 2 0.564603 0.294118 0.294118
489 2 0.520589 0.328185 0.294118
490 1 0.529412 0.411765 0.294118
491 2 0.564603 0.411765 0.294118
492 2 0.520589 0.445832 0.294118
511 1 0.647059 0.294118 0.294118
512 2 0.68225 0.294118 0.294118
513 2 0.638236 0.328185 0.294118
514 1 0.647059 0.411765 0.294118
515 2 0.68225 0.411765 0.294118
516 2 0.638236 0.445832 0.294118
679 1 0.529412 0.294118 0.411765
680 2 0.564603 0.294118 0.411765
681 2 0.520589 0.328185 0.411765
682 1 0.529412 0.411765 0.411765
683 2 0.564603 0.411765 0.411765
684 2 0.520589 0.445832 0.411765
703 1 0.647059 0.294118 0.411765
704 2 0.68225 0.294118 0.411765
705 2 0.638236 0.328185 0.411765
706 1 0.647059 0.411765 0.411765
707 2 0.68225 0.411765 0.411765
708 2 0.638236 0.445832 0.411765
535 1 0.764706 0.294118 0.294118
536 2 0.799897 0.294118 0.294118
537 2 0.755883 0.328185 0.294118
538 1 0.764706 0.411765 0.294118
539 2 0.799897 0.411765 0.294118
540 2 0.755883 0.445832 0.294118
559 1 0.882353 0.294118 0.294118
560 2 0.917544 0.294118 0.294118
561 2 0.87353 0.328185 0.294118
562 1 0.882353 0.411765 0.294118
563 2 0.917544 0.411765 0.294118
564 2 0.87353 0.445832 0.294118
727 1 0.764706 0.294118 0.411765
728 2 0.799897 0.294118 0.411765
729 2 0.755883 0.328185 0.411765
730 1 0.764706 0.411765 0.411765
731 2 0.799897 0.411765 0.411765
732 2 0.755883 0.445832 0.411765
751 1 0.882353 0.294118 0.411765
752 2 0.917544 0.294118 0.411765
753 2 0.87353 0.328185 0.411765
754 1 0.882353 0.411765 0.411765
755 2 0.917544 0.411765 0.411765
756 2 0.87353 0.445832 0.411765
769 1 0.0588235 0.0588235 0.529412
770 2 0.0940147 0.0588236 0.529412
771 2 0.0500004 0.0928907 0.529412
772 1 0.0588235 0.176471 0.529412
773 2 0.0940147 0.176471 0.529412
774 2 0.0500004 0.210538 0.529412
793 1 0.176471 0.0588235 0.529412
794 2 0.211662 0.0588236 0.529412
795 2 0.167647 0.0928907 0.529412
796 1 0.176471 0.176471 0.529412
797 2 0.211662 0.176471 0.529412
798 2 0.167647 0.210538 0.529412
961 1 0.0588235 0.0588235 0.647059
962 2 0.0940147 0.0588236 0.647059
963 2 0.0500004 0.0928907 0.647059
964 1 0.0588235 0.176471 0.647059
965 2 0.0940147 0.176471 0.647059
966 2 0.0500004 0.210538 0.647059
985 1 0.176471 0.0588235 0.647059
986 2 0.211662 0.0588236 0.647059
987 2 0.167647 0.0928907 0.647059
988 1 0.176471 0.176471 0.647059
989 2 0.211662 0.176471 0.647059
990 2 0.167647 0.210538 0.647059
817 1 0.294118 0.0588235 0.529412
818 2 0.329309 0.0588236 0.529412
819 2 0.285295 0.0928907 0.529412
820 1 0.294118 0.176471 0.529412
821 2 0.329309 0.176471 0.529412
822 2 0.285295 0.210538 0.529412
841 1 0.411765 0.0588235 0.529412
842 2 0.446956 0.0588236 0.529412
843 2 0.402942 0.0928907 0.529412
844 1 0.411765 0.176471 0.529412
845 2 0.446956 0.176471 0.529412
846 2 0.402942 0.210538 0.529412
1009 1 0.294118 0.0588235 0.647059
1010 2 0.329309 0.0588236 0.647059
1011 2 0.285295 0.0928907 0.647059
1012 1 0.294118 0.176471 0.647059
1013 2 0.329309 0.176471 0.647059
1014 2 0.285295 0.210538 0.647059
1033 1 0.411765 0.0588235 0.647059
1034 2 0.446956 0.0588236 0.647059
1035 2 0.402942 0.0928907 0.647059
1036 1 0.411765 0.176471 0.647059
1037 2 0.446956 0.176471 0.647059
1038 2 0.402942 0.210538 0.647059
865 1 0.529412 0.0588235 0.529412
866 2 0.564603 0.0588236 0.529412
867 2 0.520589 0.0928907 0.529412
868 1 0.529412 0.176471 0.529412
869 2 0.564603 0.176471 0.529412
870 2 0.520589 0.210538 0.529412
889 1 0.647059 0.0588235 0.529412
890 2 0.68225 0.0588236 0.529412
891 2 0.638236 0.0928907 0.529412
892 1 0.647059 0.176471 0.529412
893 2 0.68225 0.176471 0.529412
894 2 0.638236 0.210538 0.529412
1057 1 0.529412 0.0588235 0.647059
1058 2 0.564603 0.0588236 0.647059
1059 2 0.520589 0.0928907 0.647059
1060 1 0.529412 0.176471 0.647059
1061 2 0.564603 0.176471 0.647059
1062 2 0.520589 0.210538 0.647059
1081 1 0.647059 0.0588235 0.647059
1082 2 0.68225 0.0588236 0.647059
1083 2 0.638236 0.0928907 0.647059
1084 1 0.647059 0.176471 0.647059
1085 2 0.68225 0.176471 0.647059
1086 2 0.638236 0.210538 0.647059
913 1 0.764706 0.0588235 0.529412
914 2 0.799897 0.0588236 0.529412
915 2 0.755883 0.0928907 0.529412
916 1 0.764706 0.176471 0.529412
917 2 0.799897 0.176471 0.529412
918 2 0.755883 0.210538 0.529412
937 1 0.882353 0.0588235 0.529412
938 2 0.917544 0.0588236 0.529412
939 2 0.87353 0.0928907 0.529412
940 1 0.882353 0.176471 0.529412
941 2 0.917544 0.176471 0.529412
942 2 0.87353 0.210538 0.529412
1105 1 0.764706 0.0588235 0.647059
1106 2 0.799897 0.0588236 0.647059
1107 2 0.755883 0.0928907 0.647059
1108 1 0.764706 0.176471 0.647059
1109 2 0.799897 0.176471 0.647059
1110 2 0.755883 0.210538 0.647059
1129 1 0.882353 0.0588235 0.647059
1130 2 0.917544 0.0588236 0.647059
1131 2 0.87353 0.0928907 0.647059
1132 1 0.882353 0.176471 0.647059
1133 2 0.917544 0.176471 0.647059
1134 2 0.87353 0.210538 0.647059
775 1 0.0588235 0.294118 0.529412
776 2 0.0940147 0.294118 0.529412
777 2 0.0500004 0.328185 0.529412
778 1 0.0588235 0.411765 0.529412
779 2 0.0940147 0.411765 0.529412
780 2 0.0500004 0.445832 0.529412
799 1 0.176471 0.294118 0.529412
800 2 0.211662 0.294118 0.529412
801 2 0.167647 0.328185 0.529412
802 1 0.176471 0.411765 0.529412
803 2 0.211662 0.411765 0.529412
804 2 0.167647 0.445832 0.529412
967 1 0.0588235 0.294118 0.647059
968 2 0.0940147 0.294118 0.647059
969 2 0.0500004 0.328185 0.647059
970 1 0.0588235 0.411765 0.647059
971 2 0.0940147 0.411765 0.647059
972 2 0.0500004 0.445832 0.647059
991 1 0.176471 0.294118 0.647059
992 2 0.211662 0.294118 0.647059
993 2 0.167647 0.328185 0.647059
994 1 0.176471 0.411765 0.647059
995 2 0.211662 0.411765 0.647059
996 2 0.167647 0.445832 0.647059
823 1 0.294118 0.294118 0.529412
824 2 0.329309 0.294118 0.529412
825 2 0.285295 0.328185 0.529412
826 1 0.294118 0.411765 0.529412
827 2 0.329309 0.411765 0.529412
828 2 0.285295 0.445832 0.529412
847 1 0.411765 0.294118 0.529412
848 2 0.446956 0.294118 0.529412
849 2 0.402942 0.328185 0.529412
850 1 0.411765 0.411765 0.529412
851 2 0.446956 0.411765 0.529412
852 2 0.402942 0.445832 0.529412
1015 1 0.294118 0.294118 0.647059
1016 2 0.329309 0.294118 0.647059
1017 2 0.285295 0.328185 0.647059
1018 1 0.294118 0.411765 0.647059
1019 2 0.329309 0.411765 0.647059
1020 2 0.285295 0.445832 0.647059
1039 1 0.411765 0.294118 0.647059
1040 2 0.446956 0.294118 0.647059
1041 2 0.402942 0.328185 0.647059
1042 1 0.411765 0.411765 0.647059
1043 2 0.446956 0.411765 0.647059
1044 2 0.402942 0.445832 0.647059
871 1 0.529412 0.294118 0.529412
872 2 0.564603 0.294118 0.529412
873 2 0.520589 0.328185 0.529412
874 1 0.529412 0.411765 0.529412
875 2 0.564603 0.411765 0.529412
876 2 0.520589 0.445832 0.529412
895 1 0.647059 0.294118 0.529412
896 2 0.68225 0.294118 0.529412
897 2 0.638236 0.328185 0.529412
898 1 0.647059 0.411765 0.529412
899 2 0.68225 0.411765 0.529412
900 2 0.638236 0.445832 0.529412
1063 1 0.529412 0.294118 0.647059
1064 2 0.564603 0.294118 0.647059
1065 2 0.520589 0.328185 0.647059
1066 1 0.529412 0.411765 0.647059
1067 2 0.564603 0.411765 0.647059
1068 2 0.520589 0.445832 0.647059
1087 1 0.647059 0.294118 0.647059
1088 2 0.68225 0.294118 0.647059
1089 2 0.638236 0.328185 0.647059
1090 1 0.647059 0.411765 0.647059
1091 2 0.68225 0.411765 0.647059
1092 2 0.638236 0.445832 0.647059
919 1 0.764706 0.294118 0.529412
920 2 0.799897 0.294118 0.529412
921 2 0.755883 0.328185 0.529412
922 1 0.764706 0.411765 0.529412
923 2 0.799897 0.411765 0.529412
924 2 0.755883 0.445832 0.529412
943 1 0.882353 0.294118 0.529412
944 2 0.917544 0.294118 0.529412
945 2 0.87353 0.328185 0.529412
946 1 0.882353 0.411765 0.529412
947 2 0.917544 0.411765 0.529412
948 2 0.87353 0.445832 0.529412
1111 1 0.764706 0.294118 0.647059
1112 2 0.799897 0.294118 0.647059
1113 2 0.755883 0.328185 0.647059
1114 1 0.764706 0.411765 0.647059
1115 2 0.799897 0.411765 0.647059
1116 2 0.755883 0.445832 0.647059
1135 1 0.882353 0.294118 0.647059
1136 2 0.917544 0.294118 0.647059
1137 2 0.87353 0.328185 0.647059
1138 1 0.882353 0.411765 0.647059
1139 2 0.917544 0.411765 0.647059
1140 2 0.87353 0.445832 0.647059
1153 1 0.0588235 0.0588235 0.764706
1154 2 0.0940147 0.0588236 0.764706
1155 2 0.0500004 0.0928907 0.764706
1156 1 0.0588235 0.176471 0.764706
1157 2 0.0940147 0.176471 0.764706
1158 2 0.0500004 0.210538 0.764706
1177 1 0.176471 0.0588235 0.764706
1178 2 0.211662 0.0588236 0.764706
1179 2 0.167647 0.0928907 0.764706
1180 1 0.176471 0.176471 0.764706
1181 2 0.211662 0.176471 0.764706
1182 2 0.167647 0.210538 0.764706
1159 1 0.0588235 0.294118 0.764706
1160 2 0.0940147 0.294118 0.764706
1161 2 0.0500004 0.328185 0.764706
1162 1 0.0588235 0.411765 0.764706
1163 2 0.0940147 0.411765 0.764706
1164 2 0.0500004 0.445832 0.764706
1183 1 0.176471 0.294118 0.764706
1184 2 0.211662 0.294118 0.764706
1185 2 0.167647 0.328185 0.764706
1186 1 0.176471 0.411765 0.764706
1187 2 0.211662 0.411765 0.764706
1188 2 0.167647 0.445832 0.764706
13 1 0.0588235 0.529412 0.0588235
14 2 0.0940147 0.529412 0.0588235
15 2 0.0500004 0.563479 0.0588235
16 1 0.0588235 0.647059 0.0588235
17 2 0.0940147 0.647059 0.0588235
18 2 0.0500004 0.681126 0.0588235
37 1 0.176471 0.529412 0.0588235
38 2 0.211662 0.529412 0.0588235
39 2 0.167647 0.563479 0.0588235
40 1 0.176471 0.647059 0.0588235
41 2 0.211662 0.647059 0.0588235
42 2 0.167647 0.681126 0.0588235
205 1 0.0588235 0.529412 0.176471
206 2 0.0940147 0.529412 0.176471
207 2 0.0500004 0.563479 0.176471
208 1 0.0588235 0.647059 0.176471
209 2 0.0940147 0.647059 0.176471
210 2 0.0500004 0.681126 0.176471
229 1 0.176471 0.529412 0.176471
230 2 0.211662 0.529412 0.176471
231 2 0.167647 0.563479 0.176471
232 1 0.176471 0.647059 0.176471
233 2 0.211662 0.647059 0.176471
234 2 0.167647 0.681126 0.176471
61 1 0.294118 0.529412 0.0588235
62 2 0.329309 0.529412 0.0588235
63 2 0.285295 0.563479 0.0588235
64 1 0.294118 0.647059 0.0588235
65 2 0.329309 0.647059 0.0588235
66 2 0.285295 0.681126 0.0588235
85 1 0.411765 0.529412 0.0588235
86 2 0.446956 0.529412 0.0588235
87 2 0.402942 0.563479 0.0588235
88 1 0.411765 0.647059 0.0588235
89 2 0.446956 0.647059 0.0588235
90 2 0.402942 0.681126 0.0588235
253 1 0.294118 0.529412 0.176471
254 2 0.329309 0.529412 0.176471
255 2 0.285295 0.563479 0.176471
256 1 0.294118 0.647059 0.176471
257 2 0.329309 0.647059 0.176471
258 2 0.285295 0.681126 0.176471
277 1 0.411765 0.529412 0.176471
278 2 0.446956 0.529412 0.176471
279 2 0.402942 0.563479 0.176471
280 1 0.411765 0.647059 0.176471
281 2 0.446956 0.647059 0.176471
282 2 0.402942 0.681126 0.176471
109 1 0.529412 0.529412 0.0588235
110 2 0.564603 0.529412 0.0588235
111 2 0.520589 0.563479 0.0588235
112 1 0.529412 0.647059 0.0588235
113 2 0.564603 0.647059 0.0588235
114 2 0.520589 0.681126 0.0588235
133 1 0.647059 0.529412 0.0588235
134 2 0.68225 0.529412 0.0588235
135 2 0.638236 0.563479 0.0588235
136 1 0.647059 0.647059 0.0588235
137 2 0.68225 0.647059 0.0588235
138 2 0.638236 0.681126 0.0588235
301 1 0.529412 0.529412 0.176471
302 2 0.564603 0.529412 0.176471
303 2 0.520589 0.563479 0.176471
304 1 0.529412 0.647059 0.176471
305 2 0.564603 0.647059 0.176471
306 2 0.520589 0.681126 0.176471
325 1 0.647059 0.529412 0.176471
326 2 0.68225 0.529412 0.176471
327 2 0.638236 0.563479 0.176471
328 1 0.647059 0.647059 0.176471
329 2 0.68225 0.647059 0.176471
330 2 0.638236 0.681126 0.176471
157 1 0.764706 0.529412 0.0588235
158 2 0.799897 0.529412 0.0588235
159 2 0.755883 0.563479 0.0588235
160 1 0.764706 0.647059 0.0588235
161 2 0.799897 0.647059 0.0588235
162 2 0.755883 0.681126 0.0588235
181 1 0.882353 0.529412 0.0588235
182 2 0.917544 0.529412 0.0588235
183 2 0.87353 0.563479 0.0588235
184 1 0.882353 0.647059 0.0588235
185 2 0.917544 0.647059 0.0588235
186 2 0.87353 0.681126 0.0588235
349 1 0.764706 0.529412 0.176471
350 2 0.799897 0.529412 0.176471
351 2 0.755883 0.563479 0.176471
352 1 0.764706 0.647059 0.176471
353 2 0.799897 0.647059 0.176471
354 2 0.755883 0.681126 0.176471
373 1 0.882353 0.529412 0.176471
374 2 0.917544 0.529412 0.176471
375 2 0.87353 0.563479 0.176471
376 1 0.882353 0.647059 0.176471
377 2 0.917544 0.647059 0.176471
378 2 0.87353 0.681126 0.176471
19 1 0.0588235 0.764706 0.0588235
20 2 0.0940147 0.764706 0.0588235
21 2 0.0500004 0.798773 0.0588235
22 1 0.0588235 0.882353 0.0588235
23 2 0.0940147 0.882353 0.0588235
24 2 0.0500004 0.91642 0.0588235
43 1 0.176471 0.764706 0.0588235
44 2 0.211662 0.764706 0.0588235
45 2 0.167647 0.798773 0.0588235
46 1 0.176471 0.882353 0.0588235
47 2 0.211662 0.882353 0.0588235
48 2 0.167647 0.91642 0.0588235
211 1 0.0588235 0.764706 0.176471
212 2 0.0940147 0.764706 0.176471
213 2 0.0500004 0.798773 0.176471
214 1 0.0588235 0.882353 0.176471
215 2 0.0940147 0.882353 0.176471
216 2 0.0500004 0.91642 0.176471
235 1 0.176471 0.764706 0.176471
236 2 0.211662 0.764706 0.176471
237 2 0.167647 0.798773 0.176471
238 1 0.176471 0.882353 0.176471
239 2 0.211662 0.882353 0.176471
240 2 0.167647 0.91642 0.176471
67 1 0.294118 0.764706 0.0588235
68 2 0.329309 0.764706 0.0588235
69 2 0.285295 0.798773 0.0588235
70 1 0.294118 0.882353 0.0588235
71 2 0.329309 0.882353 0.0588235
72 2 0.285295 0.91642 0.0588235
91 1 0.411765 0.764706 0.0588235
92 2 0.446956 0.764706 0.0588235
93 2 0.402942 0.798773 0.0588235
94 1 0.411765 0.882353 0.0588235
95 2 0.446956 0.882353 0.0588235
96 2 0.402942 0.91642 0.0588235
259 1 0.294118 0.764706 0.176471
260 2 0.329309 0.764706 0.176471
261 2 0.285295 0.798773 0.176471
262 1 0.294118 0.882353 0.176471
263 2 0.329309 0.882353 0.176471
264 2 0.285295 0.91642 0.176471
283 1 0.411765 0.764706 0.176471
284 2 0.446956 0.764706 0.176471
285 2 0.402942 0.798773 0.176471
286 1 0.411765 0.882353 0.176471
287 2 0.446956 0.882353 0.176471
288 2 0.402942 0.91642 0.176471
115 1 0.529412 0.764706 0.0588235
116 2 0.564603 0.764706 0.0588235
117 2 0.520589 0.798773 0.0588235
118 1 0.529412 0.882353 0.0588235
119 2 0.564603 0.882353 0.0588235
120 2 0.520589 0.91642 0.0588235
139 1 0.647059 0.764706 0.0588235
140 2 0.68225 0.764706 0.0588235
141 2 0.638236 0.798773 0.0588235
142 1 0.647059 0.882353 0.0588235
143 2 0.68225 0.882353 0.0588235
144 2 0.638236 0.91642 0.0588235
307 1 0.529412 0.764706 0.176471
308 2 0.564603 0.764706 0.176471
309 2 0.520589 0.798773 0.176471
310 1 0.529412 0.882353 0.176471
311 2 0.564603 0.882353 0.176471
312 2 0.520589 0.91642 0.176471
331 1 0.647059 0.764706 0.176471
332 2 0.68225 0.764706 0.176471
333 2 0.638236 0.798773 0.176471
334 1 0.647059 0.882353 0.176471
335 2 0.68225 0.882353 0.176471
336 2 0.638236 0.91642 0.176471
163 1 0.764706 0.764706 0.0588235
164 2 0.799897 0.764706 0.0588235
165 2 0.755883 0.798773 0.0588235
166 1 0.764706 0.882353 0.0588235
167 2 0.799897 0.882353 0.0588235
168 2 0.755883 0.91642 0.0588235
187 1 0.882353 0.764706 0.0588235
188 2 0.917544 0.764706 0.0588235
189 2 0.87353 0.798773 0.0588235
190 1 0.882353 0.882353 0.0588235
191 2 0.917544 0.882353 0.0588235
192 2 0.87353 0.91642 0.0588235
355 1 0.764706 0.764706 0.176471
356 2 0.799897 0.764706 0.176471
357 2 0.755883 0.798773 0.176471
358 1 0.764706 0.882353 0.176471
359 2 0.799897 0.882353 0.176471
360 2 0.755883 0.91642 0.176471
379 1 0.882353 0.764706 0.176471
380 2 0.917544 0.764706 0.176471
381 2 0.87353 0.798773 0.176471
382 1 0.882353 0.882353 0.176471
383 2 0.917544 0.882353 0.176471
384 2 0.87353 0.91642 0.176471
397 1 0.0588235 0.529412 0.294118
398 2 0.0940147 0.529412 0.294118
399 2 0.0500004 0.563479 0.294118
400 1 0.0588235 0.647059 0.294118
401 2 0.0940147 0.647059 0.294118
402 2 0.0500004 0.681126 0.294118
421 1 0.176471 0.529412 0.294118
422 2 0.211662 0.529412 0.294118
423 2 0.167647 0.563479 0.294118
424 1 0.176471 0.647059 0.294118
425 2 0.211662 0.647059 0.294118
426 2 0.167647 0.681126 0.294118
589 1 0.0588235 0.529412 0.411765
590 2 0.0940147 0.529412 0.411765
591 2 0.0500004 0.563479 0.411765
592 1 0.0588235 0.647059 0.411765
593 2 0.0940147 0.647059 0.411765
594 2 0.0500004 0.681126 0.411765
613 1 0.176471 0.529412 0.411765
614 2 0.211662 0.529412 0.411765
615 2 0.167647 0.563479 0.411765
616 1 0.176471 0.647059 0.411765
617 2 0.211662 0.647059 0.411765
618 2 0.167647 0.681126 0.411765
445 1 0.294118 0.529412 0.294118
446 2 0.329309 0.529412 0.294118
447 2 0.285295 0.563479 0.294118
448 1 0.294118 0.647059 0.294118
449 2 0.329309 0.647059 0.294118
450 2 0.285295 0.681126 0.294118
469 1 0.411765 0.529412 0.294118
470 2 0.446956 0.529412 0.294118
471 2 0.402942 0.563479 0.294118
472 1 0.411765 0.647059 0.294118
473 2 0.446956 0.647059 0.294118
474 2 0.402942 0.681126 0.294118
637 1 0.294118 0.529412 0.411765
638 2 0.329309 0.529412 0.411765
639 2 0.285295 0.563479 0.411765
640 1 0.294118 0.647059 0.411765
641 2 0.329309 0.647059 0.411765
642 2 0.285295 0.681126 0.411765
661 1 0.411765 0.529412 0.411765
662 2 0.446956 0.529412 0.411765
663 2 0.402942 0.563479 0.411765
664 1 0.411765 0.647059 0.411765
665 2 0.446956 0.647059 0.411765
666 2 0.402942 0.681126 0.411765
493 1 0.529412 0.529412 0.294118
494 2 0.564603 0.529412 0.294118
495 2 0.520589 0.563479 0.294118
496 1 0.529412 0.647059 0.294118
497 2 0.564603 0.647059 0.294118
498 2 0.520589 0.681126 0.294118
517 1 0.647059 0.529412 0.294118
518 2 0.68225 0.529412 0.294118
519 2 0.638236 0.563479 0.294118
520 1 0.647059 0.647059 0.294118
521 2 0.68225 0.647059 0.294118
522 2 0.638236 0.681126 0.294118
685 1 0.529412 0.529412 0.411765
686 2 0.564603 0.529412 0.411765
687 2 0.520589 0.563479 0.411765
688 1 0.529412 0.647059 0.411765
689 2 0.564603 0.647059 0.411765
690 2 0.520589 0.681126 0.411765
709 1 0.647059 0.529412 0.411765
710 2 0.68225 0.529412 0.411765
711 2 0.638236 0.563479 0.411765
712 1 0.647059 0.647059 0.411765
713 2 0.68225 0.647059 0.411765
714 2 0.638236 0.681126 0.411765
541 1 0.764706 0.529412 0.294118
542 2 0.799897 0.529412 0.294118
543 2 0.755883 0.563479 0.294118
544 1 0.764706 0.647059 0.294118
545 2 0.799897 0.647059 0.294118
546 2 0.755883 0.681126 0.294118
565 1 0.882353 0.529412 0.294118
566 2 0.917544 0.529412 0.294118
567 2 0.87353 0.563479 0.294118
568 1 0.882353 0.647059 0.294118
569 2 0.917544 0.647059 0.294118
570 2 0.87353 0.681126 0.294118
733 1 0.764706 0.529412 0.411765
734 2 0.799897 0.529412 0.411765
735 2 0.755883 0.563479 0.411765
736 1 0.764706 0.647059 0.411765
737 2 0.799897 0.647059 0.411765
738 2 0.755883 0.681126 0.411765
757 1 0.882353 0.529412 0.411765
758 2 0.917544 0.529412 0.411765
759 2 0.87353 0.563479 0.411765
760 1 0.882353 0.647059 0.411765
761 2 0.917544 0.647059 0.411765
762 2 0.87353 0.681126 0.411765
403 1 0.0588235 0.764706 0.294118
404 2 0.0940147 0.764706 0.294118