ITEM: TIMESTEP
0
ITEM: NUMBER OF ATOMS
939
ITEM: BOX BOUNDS pp pp pp
-1.0530834119325746e+01 1.0530834119325746e+01
-1.0530834119325746e+01 1.0530834119325746e+01
-1.0530834119325746e+01 1.0530834119325746e+01
ITEM: ATOMS id type xs ys zs
5 7 0.433497 0.258744 0.299508
26 5 0.389233 0.471705 0.286708
4 6 0.42023 0.242638 0.258405
1 3 0.365494 0.245735 0.262514
9 4 0.384575 0.285363 0.35726
6 3 0.348223 0.291948 0.315058
7 5 0.346729 0.342293 0.296548
11 5 0.341766 0.352597 0.410778
142 3 0.449441 0.13908 0.4044
10 3 0.383038 0.320965 0.400864
146 5 0.347771 0.114104 0.414589
8 5 0.295635 0.28132 0.329064
148 4 0.389 0.11316 0.491761
147 5 0.367657 0.191052 0.442267
144 5 0.467511 0.18798 0.412754
145 3 0.384591 0.139198 0.444221
143 5 0.434272 0.136489 0.354495
141 4 0.475685 0.0896103 0.410538
3 5 0.343077 0.265103 0.217617
16 4 0.451731 0.38559 0.361218
12 5 0.380782 0.286484 0.443386
13 3 0.445894 0.359636 0.409397
14 5 0.486919 0.33114 0.429711
2 5 0.343017 0.196971 0.272215
28 5 0.350854 0.487626 0.37952
17 3 0.496638 0.418524 0.356791
15 5 0.433101 0.39688 0.45145
22 5 0.485456 0.439057 0.254223
20 3 0.497732 0.464967 0.2997
1623 2 0.181328 0.242979 0.0641279
1621 1 0.153062 0.207395 0.0635404
1230 2 0.130247 0.17188 0.206049
1028 2 0.230173 0.271876 0.358641
1328 2 0.0785551 0.279419 0.186624
1063 1 0.0230988 0.0991138 0.0181636
332 2 0.278083 0.0883298 0.104701
886 1 0.436929 0.162838 0.000311409
1229 2 0.116726 0.185943 0.136868
1228 1 0.0961671 0.178119 0.176637
916 1 0.0771349 0.430365 0.111222
918 2 0.0834457 0.400446 0.144845
374 2 0.167687 0.0745304 0.0914937
1065 2 0.0569355 0.103919 0.0481213
1027 1 0.201699 0.279873 0.393148
1327 1 0.0728265 0.322319 0.200487
541 1 0.214418 0.456482 0.167006
1029 2 0.204654 0.324671 0.400212
1329 2 0.0808023 0.321003 0.24521
1321 1 0.272655 0.13552 0.170942
1323 2 0.248304 0.171286 0.157038
1322 2 0.252793 0.122595 0.209722
1344 2 0.15327 0.0717185 0.259258
1307 2 0.191757 0.400266 0.31025
571 1 0.0589716 0.440013 0.324878
1342 1 0.182962 0.104139 0.270781
478 1 0.168968 0.402515 0.407388
1343 2 0.207742 0.0855902 0.304058
479 2 0.126937 0.412317 0.421628
573 2 0.0354318 0.4062 0.344061
572 2 0.0502531 0.476196 0.35096
1273 1 0.236374 0.00393833 0.337418
407 2 0.211668 0.299696 0.201837
480 2 0.195191 0.409038 0.443929
1020 2 0.300975 0.406866 0.0613679
917 2 0.117634 0.450306 0.105963
1018 1 0.31034 0.365761 0.0783419
1622 2 0.118536 0.220703 0.0371521
333 2 0.304115 0.0380822 0.0603817
542 2 0.257101 0.443314 0.158624
408 2 0.276249 0.275199 0.18194
406 1 0.234038 0.26146 0.191686
1162 1 0.44856 0.494643 0.119952
1308 2 0.256812 0.386802 0.282807
543 2 0.204664 0.438389 0.20754
461 2 0.089146 0.138513 0.434974
460 1 0.0623756 0.111517 0.410073
1298 2 0.279455 0.286537 0.452261
1297 1 0.296597 0.289847 0.494222
1306 1 0.212498 0.384623 0.272959
261 2 0.0284062 0.448987 0.0454776
237 2 0.0298013 0.486741 0.174568
1019 2 0.273302 0.341008 0.069343
1107 2 0.0350673 0.0812945 0.209991
492 2 0.383283 0.33779 0.0474328
781 1 0.194467 0.328248 0.030892
330 2 0.0589236 0.394507 0.497948
373 1 0.128379 0.0526875 0.0849176
1275 2 0.273756 0.0289881 0.343784
331 1 0.268287 0.0653051 0.0667616
887 2 0.439792 0.185916 0.0393587
462 2 0.0290563 0.0992197 0.438429
259 1 0.00852612 0.473254 0.012593
527 2 0.134858 0.28775 0.336479
921 2 0.0816383 0.242085 0.491853
920 2 0.144568 0.242913 0.457129
830 2 0.184467 0.0419622 0.424271
328 1 0.0597751 0.431644 0.471764
782 2 0.159448 0.356007 0.0391743
525 2 0.381922 0.467351 0.182393
595 1 0.488038 0.0420895 0.0997066
829 1 0.159273 0.0509889 0.461004
1187 2 0.481961 0.166627 0.284263
1222 1 0.468528 0.328127 0.252898
1223 2 0.491366 0.292824 0.27015
1260 2 0.496995 0.37595 0.0470563
594 2 0.425752 0.220183 0.140723
966 2 0.00536216 0.283437 0.0745479
523 1 0.347588 0.441905 0.197859
593 2 0.496707 0.231044 0.136974
592 1 0.463624 0.203987 0.121517
375 2 0.130761 0.0164607 0.112257
597 2 0.477856 0.0858199 0.10674
526 1 0.0994094 0.272301 0.312601
329 2 0.0327694 0.461287 0.493151
490 1 0.423173 0.332371 0.0263397
831 2 0.120399 0.0676295 0.44435
919 1 0.113942 0.214708 0.475348
1259 2 0.495467 0.438945 0.0816386
932 2 0.00048227 0.309192 0.461552
524 2 0.367549 0.410425 0.223859
528 2 0.112862 0.231712 0.297203
236 2 0.0362883 0.479117 0.245747
1105 1 0.018034 0.0435597 0.228737
1418 2 0.00376266 0.175378 0.39218
140 5 0.531448 0.0525705 0.351226
18 5 0.542073 0.387733 0.353144
21 5 0.549912 0.475212 0.288452
139 5 0.556237 0.133935 0.377853
134 5 0.616939 0.0574553 0.433898
133 3 0.565954 0.0640233 0.448667
136 6 0.566268 0.0998749 0.48905
186 5 0.626909 0.453518 0.392172
185 5 0.570733 0.47819 0.457561
183 4 0.666261 0.482899 0.466794
175 5 0.628358 0.303655 0.374861
174 5 0.693273 0.277851 0.41875
171 5 0.553594 0.254625 0.419961
172 5 0.613576 0.207813 0.462678
170 3 0.594736 0.260238 0.454171
176 4 0.647748 0.358861 0.440649
173 3 0.645152 0.303264 0.424183
137 7 0.520538 0.104039 0.496932
135 5 0.552847 0.0137994 0.464313
184 3 0.61902 0.485503 0.435487
177 3 0.68357 0.37071 0.481074
19 5 0.50021 0.452307 0.397919
179 5 0.729724 0.37347 0.453655
138 3 0.528388 0.0902283 0.391905
378 2 0.732884 0.0456741 0.269169
1242 2 0.800965 0.166556 0.496586
885 2 0.743382 0.493465 0.082945
883 1 0.712104 0.498588 0.0503729
1064 2 0.996865 0.0664336 0.0357497
755 2 0.877387 0.00681489 0.0153416
965 2 0.966618 0.341166 0.0563006
376 1 0.73264 0.0706912 0.231227
372 2 0.735483 0.018733 0.122071
1419 2 0.964511 0.198803 0.336707
927 2 0.682762 0.417037 0.052989
377 2 0.768958 0.0564146 0.207932
254 2 0.804596 0.301758 0.0484807
468 2 0.629617 0.303083 0.0220773
926 2 0.718721 0.361239 0.0805605
925 1 0.683346 0.371604 0.0539785
1060 1 0.865027 0.0409595 0.214081
651 2 0.832379 0.455893 0.163319
649 1 0.809403 0.445021 0.125644
671 2 0.931008 0.484808 0.0336695
550 1 0.88426 0.473137 0.228983
1188 2 0.537496 0.197121 0.250313
1186 1 0.507706 0.204078 0.283922
971 2 0.922422 0.266699 0.228512
431 2 0.930168 0.0322075 0.355187
1169 2 0.833898 0.419961 0.366925
1338 2 0.833241 0.282946 0.361815
972 2 0.885052 0.205658 0.235162
890 2 0.764518 0.019238 0.458082
552 2 0.911063 0.436462 0.230378
1062 2 0.867092 0.0785205 0.188578
545 2 0.83762 0.454061 0.460631
466 1 0.599032 0.271172 0.0115081
1336 1 0.837991 0.317869 0.333123
1258 1 0.523924 0.406728 0.0668825
776 2 0.763241 0.119167 0.29707
501 2 0.616838 0.373421 0.187728
1340 2 0.6168 0.14988 0.25145
1224 2 0.500838 0.356625 0.238426
1676 2 0.802048 0.170806 0.159291
1677 2 0.859726 0.177271 0.116888
351 2 0.72008 0.387132 0.244463
964 1 0.971736 0.310258 0.0892248
1557 2 0.588111 0.299574 0.168735
1556 2 0.599926 0.277815 0.101255
1555 1 0.592973 0.262185 0.14336
1339 1 0.604323 0.109825 0.233975
1341 2 0.643487 0.0882719 0.225781
500 2 0.559442 0.393404 0.149349
382 1 0.932689 0.068991 0.479998
499 1 0.571895 0.379447 0.190769
350 2 0.718458 0.404341 0.174693
349 1 0.702619 0.374014 0.204607
1675 1 0.847034 0.164384 0.15858
467 2 0.621785 0.231984 0.0149843
345 2 0.751255 0.233643 0.122478
1417 1 0.966301 0.19906 0.382119
244 1 0.662397 0.160027 0.0337563
246 2 0.685668 0.160938 0.0727835
255 2 0.820105 0.347405 0.101795
458 2 0.64606 0.07269 0.140293
457 1 0.651686 0.0331919 0.118528
670 1 0.885692 0.486142 0.0368598
1278 2 0.780309 0.024689 0.0381505
596 2 0.524654 0.0430993 0.0728048
1184 2 0.943267 0.350471 0.168885
384 2 0.88736 0.065841 0.479068
459 2 0.634569 0.0404918 0.0770642
1185 2 0.980993 0.34316 0.22963
1183 1 0.940069 0.355223 0.21397
757 1 0.963298 0.336808 0.376705
759 2 0.974886 0.296706 0.358732
852 2 0.890694 0.22565 0.0413933
851 2 0.943042 0.179453 0.0243014
285 2 0.821446 0.194632 0.379381
370 1 0.780129 0.0106793 0.119368
775 1 0.774681 0.135554 0.337888
1288 1 0.660079 0.210935 0.289661
1168 1 0.82579 0.460678 0.348437
650 2 0.838689 0.452842 0.0917816
758 2 0.921558 0.344863 0.36063
284 2 0.88812 0.205422 0.403973
777 2 0.795382 0.100859 0.358701
1289 2 0.674181 0.187025 0.325645
1106 2 0.982469 0.0579834 0.25308
889 1 0.809374 0.0262983 0.459963
253 1 0.811102 0.303652 0.0934201
344 2 0.689908 0.223917 0.158654
850 1 0.898496 0.181664 0.0330353
544 1 0.80525 0.449515 0.492206
1061 2 0.884024 0.0529523 0.253588
343 1 0.723735 0.201219 0.138504
430 1 0.928384 0.0690849 0.328685
1170 2 0.843602 0.457997 0.306711
283 1 0.844471 0.213491 0.413727
1290 2 0.64401 0.249626 0.307275
245 2 0.694286 0.156647 0.00155173
432 2 0.942636 0.102997 0.355375
1337 2 0.854037 0.299149 0.294945
970 1 0.910201 0.235167 0.258874
150 5 0.294265 0.128102 0.502737
154 5 0.332928 0.133064 0.627005
151 5 0.336425 0.0660739 0.53866
149 3 0.343983 0.116526 0.523636
152 3 0.364844 0.151716 0.584694
153 5 0.416531 0.135237 0.593861
159 3 0.412109 0.297504 0.593427
162 4 0.450045 0.28293 0.55631
160 5 0.423476 0.326768 0.637448
157 5 0.334302 0.262876 0.643504
158 5 0.404393 0.222209 0.659312
156 3 0.377299 0.239018 0.616814
155 4 0.354698 0.205066 0.577209
63 5 0.437093 0.444741 0.792485
65 6 0.423306 0.399255 0.722478
66 7 0.461518 0.411565 0.700103
62 3 0.437911 0.393478 0.773746
64 5 0.404728 0.357606 0.796528
161 5 0.373396 0.325204 0.568251
42 5 0.494183 0.495597 0.658454
535 1 0.265313 0.108838 0.671876
1613 2 0.163501 0.381265 0.582223
512 2 0.249358 0.191355 0.712164
536 2 0.26311 0.0993029 0.627494
537 2 0.23333 0.0826457 0.690758
538 1 0.215152 0.101224 0.937259
513 2 0.215794 0.219412 0.769198
511 1 0.253899 0.222798 0.744662
1560 2 0.148836 0.220883 0.631817
1401 2 0.0256736 0.217457 0.700859
539 2 0.253531 0.11191 0.915389
540 2 0.228438 0.0919425 0.979718
1602 2 0.295628 0.172998 0.806399
1558 1 0.12127 0.242314 0.660907
1315 1 0.155432 0.214089 0.835697
1317 2 0.122534 0.242806 0.823104
1559 2 0.119444 0.285034 0.645506
1299 2 0.272074 0.260596 0.518889
1316 2 0.138353 0.192292 0.871733
1603 1 0.0547793 0.0956644 0.652632
395 2 0.135923 0.125087 0.930932
1690 1 0.319404 0.236918 0.966248
394 1 0.0953502 0.144777 0.92531
820 1 0.165729 0.0338457 0.704505
879 2 0.0877899 0.0626596 0.887295
621 2 0.187696 0.207988 0.53874
1395 2 0.252286 0.436514 0.519272
1600 1 0.319246 0.155373 0.840996
864 2 0.25516 0.368884 0.888486
620 2 0.247859 0.177434 0.563508
862 1 0.244502 0.329488 0.908482
878 2 0.0542167 0.0233814 0.837328
863 2 0.209715 0.313368 0.88408
822 2 0.157819 0.026323 0.748623
1553 2 0.392664 0.0349974 0.76894
619 1 0.219581 0.212248 0.570844
877 1 0.0889501 0.0222068 0.866615
396 2 0.0692772 0.126633 0.957813
1604 2 0.0301612 0.0906206 0.6905
1434 2 0.00440542 0.154965 0.592387
770 2 0.0189562 0.276449 0.950542
771 2 0.0541775 0.214419 0.9594
1605 2 0.0935664 0.0735951 0.661233
769 1 0.0449438 0.253786 0.980148
1612 1 0.135923 0.372787 0.617338
1614 2 0.163276 0.373054 0.653632
518 2 0.0541831 0.400092 0.623524
1561 1 0.129147 0.346404 0.813957
1691 2 0.302175 0.261644 0.932229
1610 2 0.253855 0.383119 0.706216
1075 1 0.0984085 0.407745 0.922181
1609 1 0.218911 0.355478 0.715184
1076 2 0.108656 0.376978 0.89034
1563 2 0.0885576 0.351883 0.79426
1077 2 0.0601903 0.392159 0.941205
1611 2 0.238214 0.315509 0.724947
1562 2 0.15896 0.360782 0.782813
1692 2 0.283012 0.221063 0.988377
783 2 0.208883 0.34014 0.989465
491 2 0.412312 0.31535 0.985624
888 2 0.396661 0.174773 0.982948
1601 2 0.360724 0.173487 0.836877
578 2 0.380255 0.0822148 0.972046
577 1 0.370208 0.0610613 0.933096
1554 2 0.329575 0.0676091 0.757856
707 2 0.108243 0.487295 0.887478
1282 1 0.315289 0.470628 0.910709
1552 1 0.347854 0.0274198 0.768634
1200 2 0.404959 0.327336 0.880143
1235 2 0.0178054 0.380414 0.713687
658 1 0.469236 0.0732787 0.73419
517 1 0.00968726 0.408555 0.627262
735 2 0.45717 0.241199 0.863115
1283 2 0.351151 0.442728 0.911672
659 2 0.434887 0.0913809 0.710568
1198 1 0.408314 0.36974 0.896147
846 2 0.236547 0.0289075 0.894353
1199 2 0.451439 0.373298 0.910039
1403 2 0.449019 0.0751162 0.896387
734 2 0.438157 0.253516 0.794899
733 1 0.420871 0.244666 0.835988
632 2 0.497327 0.205153 0.942851
1393 1 0.225506 0.40029 0.525283
1404 2 0.481531 0.0775043 0.832325
1402 1 0.488462 0.0857613 0.876475
1234 1 0.00487329 0.356856 0.750337
519 2 0.000552231 0.436883 0.592917
986 2 0.0204951 0.0156405 0.607039
579 2 0.342641 0.0898581 0.911272
1284 2 0.315136 0.490404 0.951628
931 1 0.0105945 0.307392 0.505823
1394 2 0.254325 0.36545 0.529872
845 2 0.276958 0.0110247 0.837662
165 5 0.51918 0.335827 0.581118
167 5 0.514443 0.203676 0.512738
59 3 0.50665 0.362596 0.777043
51 4 0.594162 0.485551 0.712133
52 3 0.621967 0.437768 0.707501
182 5 0.638649 0.439297 0.546039
180 3 0.671788 0.439932 0.503159
181 5 0.722128 0.45509 0.520353
168 5 0.582122 0.221434 0.566886
166 3 0.543377 0.245471 0.534176
169 4 0.570324 0.28257 0.500829
57 5 0.611539 0.373879 0.791178
53 5 0.616353 0.420987 0.655443
54 5 0.673443 0.438642 0.719871
55 3 0.590621 0.38251 0.740681
56 5 0.602138 0.337208 0.712165
58 4 0.534816 0.386799 0.734195
60 5 0.520689 0.374725 0.827195
43 5 0.514304 0.471196 0.58312
178 5 0.693922 0.335567 0.522273
163 3 0.500033 0.285113 0.578521
164 5 0.507794 0.257863 0.625225
61 5 0.502822 0.308663 0.776278
1399 1 0.982652 0.229303 0.709477
962 2 0.602452 0.375058 0.519639
1152 2 0.970769 0.374516 0.90156
383 2 0.945277 0.0420901 0.514398
1192 1 0.852136 0.497957 0.623335
1194 2 0.850711 0.484117 0.580069
1262 2 0.618398 0.0682303 0.973586
1400 2 0.985062 0.273088 0.721414
1650 2 0.762803 0.190082 0.899045
576 2 0.936734 0.273004 0.622717
575 2 0.942933 0.344344 0.628955
574 1 0.91332 0.311666 0.617968
1241 2 0.810457 0.173859 0.56746
1261 1 0.588053 0.0396119 0.991633
583 1 0.743466 0.499333 0.926006
1263 2 0.560848 0.0285012 0.956965
1291 1 0.526752 0.390974 0.92622
1150 1 0.970524 0.331439 0.916047
1151 2 0.953555 0.307779 0.881151
935 2 0.921837 0.480255 0.888033
1432 1 0.965773 0.166739 0.571546
1276 1 0.780424 0.0344926 0.993773
944 2 0.768195 0.303465 0.681238
943 1 0.737141 0.321592 0.653443
308 2 0.883323 0.329526 0.94361
987 2 0.948748 0.0120913 0.609562
853 1 0.769663 0.383509 0.853697
232 1 0.788314 0.0351473 0.737024
945 2 0.758145 0.324508 0.613247
834 2 0.841718 0.340144 0.75615
585 2 0.740704 0.47743 0.965731
854 2 0.803003 0.386515 0.822957
629 2 0.726068 0.0141778 0.849916
933 2 0.978552 0.280608 0.52375
307 1 0.838494 0.325515 0.94992
1292 2 0.542682 0.397599 0.968266
510 2 0.819618 0.290246 0.518199
660 2 0.503479 0.102679 0.728849
934 1 0.89253 0.44691 0.897764
302 2 0.573338 0.189374 0.722881
901 1 0.824263 0.142481 0.902938
963 2 0.61336 0.34717 0.584984
961 1 0.620543 0.339153 0.54083
301 1 0.561646 0.158644 0.691505
1484 2 0.952424 0.0173494 0.778934
631 1 0.519677 0.237126 0.919534
633 2 0.548786 0.254885 0.949581
303 2 0.546508 0.183322 0.656472
546 2 0.810553 0.407214 0.507953
1469 2 0.720948 0.491603 0.774007
899 2 0.568759 0.121969 0.843135
1689 2 0.792542 0.459987 0.671767
233 2 0.775987 0.0443278 0.779794
833 2 0.839445 0.407957 0.732424
1648 1 0.723583 0.211367 0.890432
586 1 0.851416 0.173193 0.650397
1688 2 0.748821 0.403392 0.678981
204 2 0.524751 0.477248 0.91295
289 1 0.6583 0.312988 0.855711
630 2 0.684023 0.0624583 0.817238
893 2 0.528733 0.0299113 0.66957
903 2 0.801885 0.107339 0.921096
1687 1 0.761536 0.441843 0.699603
1483 1 0.995151 0.0261627 0.766199
298 1 0.931197 0.230228 0.831657
300 2 0.960779 0.225973 0.797419
1567 1 0.889503 0.0484949 0.650682
1293 2 0.553389 0.358461 0.908935
936 2 0.874697 0.458754 0.937854
900 2 0.599022 0.183394 0.864993
1240 1 0.778141 0.171021 0.535632
588 2 0.892189 0.192742 0.654967
465 2 0.665617 0.128048 0.662941
898 1 0.606241 0.147235 0.838424
1236 2 0.964151 0.373938 0.761077
291 2 0.6789 0.275797 0.871771
1649 2 0.700567 0.182542 0.863882
290 2 0.691698 0.343488 0.85126
902 2 0.851778 0.156848 0.936135
628 1 0.719282 0.058917 0.845695
1568 2 0.887801 0.0939022 0.651554
464 2 0.714344 0.120784 0.6106
299 2 0.930095 0.189091 0.850944
509 2 0.853453 0.329762 0.5678
1202 2 0.792553 0.247835 0.805864
1569 2 0.859663 0.0353643 0.682346
1201 1 0.817925 0.250825 0.768276
587 2 0.831392 0.179028 0.690776
234 2 0.754308 0.0513963 0.711627
508 1 0.815044 0.327656 0.543597
985 1 0.984153 0.00467616 0.582049
855 2 0.769492 0.424009 0.874318
1203 2 0.856755 0.229804 0.779037
309 2 0.820029 0.349886 0.916296
463 1 0.695753 0.0987152 0.645712
1313 2 0.702347 0.0203836 0.614666
832 1 0.864631 0.379378 0.75721
1433 2 0.960258 0.135322 0.539173
92 5 0.217338 0.844748 0.470901
25 5 0.407625 0.555943 0.267991
24 3 0.41819 0.514574 0.302628
102 5 0.439145 0.758511 0.482259
27 3 0.379358 0.531444 0.363616
100 3 0.458433 0.811432 0.479521
30 4 0.406311 0.531538 0.41337
97 3 0.403425 0.863282 0.489139
99 5 0.414847 0.912 0.471302
32 5 0.365962 0.606367 0.445115
96 4 0.359912 0.841623 0.4591
31 3 0.415355 0.584567 0.433983
33 5 0.442446 0.618397 0.403695
93 3 0.313848 0.867743 0.46472
95 5 0.300916 0.891583 0.415216
29 5 0.348507 0.574078 0.347329
91 5 0.272292 0.783905 0.440114
106 5 0.486294 0.773518 0.38636
90 3 0.264143 0.818948 0.480572
23 4 0.474428 0.513305 0.307156
1177 1 0.239986 0.668274 0.34394
1411 1 0.142571 0.953848 0.177349
1413 2 0.165888 0.916982 0.164593
1412 2 0.111957 0.93824 0.207093
1281 2 0.090413 0.773782 0.177164
1279 1 0.104224 0.816466 0.169892
1010 2 0.326653 0.915691 0.279984
1178 2 0.274818 0.661727 0.372389
1179 2 0.256191 0.656417 0.303169
1190 2 0.155979 0.873003 0.345013
1218 2 0.270948 0.594503 0.233738
1217 2 0.246773 0.527469 0.224321
909 2 0.238715 0.815306 0.129459
1017 2 0.0508798 0.639042 0.181149
792 2 0.0556626 0.850885 0.094684
260 2 0.0366785 0.50825 0.00565071
929 2 0.496019 0.743385 0.00389649
1015 1 0.0862028 0.667323 0.185387
450 2 0.133443 0.563746 0.0186672
1016 2 0.108786 0.651982 0.221721
1607 2 0.186175 0.740233 0.161567
1425 2 0.084832 0.554908 0.268278
1280 2 0.0793725 0.841519 0.198532
1423 1 0.108954 0.579358 0.298041
1606 1 0.217409 0.727636 0.131052
1424 2 0.150647 0.561339 0.29645
790 1 0.0238245 0.859132 0.0633185
1216 1 0.235088 0.567767 0.241784
907 1 0.237398 0.86073 0.130132
908 2 0.21902 0.872189 0.0901766
1608 2 0.199039 0.738304 0.0908747
485 2 0.331384 0.651029 0.185613
1651 1 0.29746 0.528029 0.0362726
1486 1 0.380814 0.790333 0.00114612
484 1 0.343074 0.65454 0.22939
924 2 0.117175 0.93817 0.429014
418 1 0.233101 0.803432 0.346766
420 2 0.270589 0.819671 0.326857
1191 2 0.179327 0.938656 0.327371
895 1 0.163739 0.717485 0.0118995
1189 1 0.143054 0.916548 0.343528
1009 1 0.330578 0.880766 0.308799
388 1 0.0450457 0.568675 0.410313
389 2 0.0623798 0.58276 0.370732
419 2 0.235864 0.758405 0.341251
1011 2 0.333085 0.900094 0.349855
791 2 0.0358413 0.898992 0.0450907
436 1 0.0313444 0.918691 0.240184
437 2 0.0238885 0.896159 0.278942
923 2 0.0600533 0.925543 0.470779
235 1 0.0262111 0.509668 0.213645
922 1 0.105209 0.920649 0.469205
287 2 0.164296 0.602517 0.108468
1165 1 0.362955 0.980296 0.0884591
1166 2 0.405822 0.995332 0.0870994
828 2 0.268056 0.928484 0.185169
1653 2 0.255422 0.53245 0.0529677
1069 1 0.28176 0.519752 0.492499
286 1 0.190256 0.56683 0.0976048
1652 2 0.321508 0.560397 0.0572364
364 1 0.431654 0.573295 0.0129864
1662 2 0.129607 0.789617 0.491329
224 2 0.473827 0.992213 0.179417
486 2 0.362163 0.695641 0.232826
288 2 0.195825 0.54445 0.136766
1507 1 0.0334704 0.737373 0.0153032
1537 1 0.390565 0.829786 0.125129
800 2 0.277555 0.676813 0.0987768
1538 2 0.3475 0.840569 0.134855
223 1 0.458592 0.96248 0.210228
1274 2 0.243949 0.981871 0.298417
1070 2 0.285337 0.562578 0.477713
1500 2 0.386744 0.801072 0.289461
1532 2 0.492463 0.796212 0.0989838
1539 2 0.389734 0.818031 0.0812363
1498 1 0.406087 0.762381 0.27552
1163 2 0.476908 0.523199 0.141081
801 2 0.345888 0.679401 0.0766282
1053 2 0.444798 0.732085 0.183667
1052 2 0.469577 0.665093 0.191709
1167 2 0.362964 0.943428 0.0618835
1164 2 0.433515 0.518039 0.0840107
1051 1 0.461403 0.696854 0.160247
799 1 0.314303 0.650825 0.0924786
1499 2 0.431236 0.748832 0.310867
317 2 0.0351888 0.748846 0.452377
1508 2 0.0272754 0.780714 0.0274956
366 2 0.463105 0.59694 0.0357293
827 2 0.303694 0.990691 0.179989
225 2 0.441541 0.928292 0.185613
1509 2 0.0784392 0.733307 0.0101313
390 2 0.0791129 0.573446 0.440014
438 2 0.0297206 0.962544 0.252005
826 1 0.289892 0.959578 0.210105
104 3 0.525553 0.790181 0.417108
109 5 0.598404 0.768733 0.342812
188 5 0.563323 0.554099 0.375343
193 5 0.651567 0.654526 0.367552
112 5 0.6314 0.908797 0.400181
187 3 0.609807 0.551891 0.403311
189 5 0.593154 0.58389 0.446698
114 3 0.724544 0.863223 0.406212
190 4 0.652831 0.565279 0.370176
116 5 0.724427 0.851244 0.46171
113 5 0.660197 0.876259 0.324961
192 5 0.606569 0.615656 0.30523
110 4 0.624841 0.825385 0.402474
105 5 0.542091 0.74749 0.447774
107 3 0.584622 0.811296 0.374255
111 3 0.657223 0.866942 0.380189
191 3 0.649714 0.610039 0.338479
194 3 0.711721 0.61175 0.296213
198 7 0.744037 0.573864 0.359679
108 5 0.563255 0.843168 0.33631
196 5 0.712005 0.662424 0.274034
195 5 0.706984 0.574938 0.255578
130 5 0.666302 0.706278 0.454948
132 7 0.652676 0.785136 0.497592
103 4 0.502896 0.830519 0.450726
35 5 0.505625 0.5802 0.494089
123 5 0.759266 0.701692 0.398809
122 5 0.842084 0.714165 0.423068
119 5 0.832439 0.798079 0.358858
121 3 0.791787 0.735347 0.427629
118 3 0.797728 0.803819 0.400054
124 4 0.777734 0.739339 0.483771
120 5 0.828084 0.830561 0.437984
127 5 0.757387 0.642816 0.486596
117 4 0.751996 0.825792 0.377049
197 6 0.757062 0.602153 0.325952
115 5 0.753824 0.905885 0.402457
1300 1 0.948039 0.697786 0.107579
760 1 0.708945 0.828518 0.10012
1449 2 0.878314 0.803578 0.00470647
754 1 0.918874 0.993698 0.0284661
1657 1 0.948906 0.909388 0.499322
1098 2 0.850621 0.58761 0.15952
761 2 0.691919 0.854441 0.0668996
1301 2 0.986893 0.70085 0.0842022
1115 2 0.921887 0.904838 0.357465
319 1 0.523826 0.594828 0.216271
1243 1 0.789593 0.715095 0.109008
1295 2 0.842198 0.899984 0.180113
506 2 0.693852 0.98309 0.361548
1302 2 0.916409 0.714063 0.079293
672 2 0.876821 0.526192 0.0564232
316 1 0.989811 0.748997 0.449864
565 1 0.788697 0.88902 0.314606
1319 2 0.565196 0.647941 0.0417104
551 2 0.909435 0.504872 0.208378
371 2 0.786384 0.972857 0.143777
1084 1 0.684774 0.805018 0.282721
1447 1 0.862668 0.761032 0.00793679
1097 2 0.90027 0.62487 0.12328
240 2 0.58851 0.861235 0.0600376
905 2 0.842254 0.627892 0.322228
1294 1 0.79883 0.88768 0.185885
471 2 0.654286 0.747641 0.128107
762 2 0.731198 0.857622 0.127013
1086 2 0.694852 0.79705 0.326314
1114 1 0.899408 0.939663 0.376102
1531 1 0.527357 0.785986 0.0717206
320 2 0.510344 0.575018 0.254888
321 2 0.562112 0.573058 0.205059
470 2 0.617159 0.731721 0.187561
1245 2 0.817249 0.734188 0.0784137
1116 2 0.903439 0.93316 0.420901
1320 2 0.529089 0.653682 0.103597
1318 1 0.538187 0.624624 0.0698581
1238 2 0.878349 0.630155 0.434261
1533 2 0.558653 0.76819 0.0994574
239 2 0.596469 0.926609 0.088839
1663 1 0.937607 0.797885 0.217898
1096 1 0.878852 0.584793 0.124016
238 1 0.606503 0.902161 0.0518652
1388 2 0.778429 0.619264 0.238485
337 1 0.917139 0.936926 0.158502
891 2 0.827319 0.984694 0.463502
338 2 0.896837 0.975448 0.171515
1237 1 0.878239 0.659234 0.469188
339 2 0.956727 0.936807 0.180824
507 2 0.645286 0.965167 0.311681
566 2 0.825289 0.902972 0.337669
906 2 0.817882 0.695505 0.323318
1296 2 0.793039 0.887146 0.230959
1496 2 0.694617 0.642941 0.0221034
1495 1 0.732114 0.622569 0.0377371
1244 2 0.772185 0.750164 0.132085
884 2 0.706395 0.543552 0.0470284
1497 2 0.747779 0.650638 0.0698653
505 1 0.689822 0.971961 0.317669
1239 2 0.91553 0.68449 0.463104
756 2 0.911365 0.964469 0.0624475
1664 2 0.937646 0.831241 0.18703
567 2 0.758001 0.921928 0.320947
1085 2 0.716551 0.834408 0.268867
1176 2 0.936875 0.570786 0.394287
1389 2 0.781445 0.64187 0.170319
904 1 0.807712 0.653875 0.308184
469 1 0.616064 0.727575 0.142316
1381 1 0.965009 0.836089 0.340348
1382 2 0.965984 0.798954 0.36653
1175 2 0.878316 0.538211 0.368279
1174 1 0.900387 0.577939 0.368153
1383 2 0.955446 0.820459 0.298758
1387 1 0.764869 0.60858 0.196443
318 2 0.976292 0.767636 0.489047
1665 2 0.942595 0.75983 0.193558
77 5 0.210976 0.675894 0.710911
88 5 0.243814 0.719575 0.549051
78 5 0.249737 0.711255 0.785295
83 3 0.32856 0.739163 0.604275
81 5 0.280888 0.782413 0.709793
87 5 0.313676 0.722583 0.502885
98 5 0.398055 0.859536 0.544266
74 5 0.255779 0.586446 0.681789
37 4 0.432456 0.5453 0.533888
34 3 0.451148 0.586614 0.500013
80 5 0.348945 0.723268 0.715477
82 4 0.289424 0.723772 0.642148
75 4 0.287309 0.639224 0.753425
84 5 0.367359 0.700081 0.59861
39 5 0.401162 0.526779 0.605971
79 3 0.297284 0.732152 0.696974
67 3 0.318472 0.537781 0.755031
85 5 0.352132 0.786534 0.619545
70 6 0.361801 0.551891 0.786292
72 3 0.293404 0.597758 0.717243
68 5 0.282223 0.510782 0.780522
94 5 0.303545 0.908884 0.501071
36 5 0.445511 0.636841 0.521448
38 3 0.443683 0.553171 0.587725
73 5 0.333807 0.610693 0.685498
40 5 0.436164 0.599144 0.612984
71 7 0.351414 0.592638 0.804637
76 3 0.256257 0.685684 0.736893
86 3 0.288803 0.750045 0.541811
69 5 0.333724 0.506956 0.713433
89 4 0.263645 0.801369 0.534217
101 5 0.491863 0.811425 0.522445
1668 2 0.223084 0.88395 0.749515
1681 1 0.117593 0.657004 0.747702
1682 2 0.0888173 0.624645 0.733906
1683 2 0.129442 0.644536 0.789769
1666 1 0.196745 0.89703 0.714864
1667 2 0.164036 0.865539 0.712896
897 2 0.179295 0.757657 0.997419
1597 1 0.00717709 0.735848 0.733186
1685 2 0.0914543 0.97997 0.99481
750 2 0.0644385 0.871179 0.741997
1598 2 0.0457649 0.71999 0.751212
896 2 0.175637 0.688212 0.979234
749 2 0.063601 0.799339 0.739761
748 1 0.089104 0.834592 0.752885
825 2 0.269784 0.72032 0.878463
823 1 0.281414 0.762071 0.892141
824 2 0.30744 0.755225 0.928765
603 2 0.281683 0.928597 0.661671
880 1 0.0181881 0.578749 0.689074
774 2 0.0226208 0.840421 0.837618
772 1 0.0116386 0.825477 0.87911
773 2 0.0508696 0.810683 0.896646
1641 2 0.164564 0.875143 0.977929
813 2 0.0831414 0.865825 0.631988
1640 2 0.225819 0.85064 0.949396
1485 2 0.00977168 0.98731 0.747701
1071 2 0.275425 0.523668 0.537332
601 1 0.325996 0.938597 0.663025
398 2 0.156614 0.693006 0.654243
1619 2 0.276231 0.81805 0.819368
397 1 0.162689 0.715749 0.615367
819 2 0.25363 0.578057 0.972682
399 2 0.200976 0.739363 0.621845
1618 1 0.280561 0.85932 0.800833
818 2 0.248294 0.609597 0.908312
708 2 0.0618058 0.532526 0.856423
817 1 0.224529 0.60054 0.945977
812 2 0.0668203 0.845169 0.565103
811 1 0.0534856 0.873153 0.598339
1639 1 0.196397 0.843139 0.983212
602 2 0.330774 0.96416 0.700297
881 2 0.00796252 0.598889 0.649637
915 2 0.190974 0.915905 0.575781
1686 2 0.083899 0.947922 0.930916
1310 2 0.161867 0.555208 0.513554
821 2 0.186705 0.996187 0.690107
1620 2 0.262056 0.887498 0.831312
1660 1 0.106849 0.752836 0.505284
448 1 0.096994 0.561519 0.991611
1171 1 0.373573 0.644316 0.925568
1173 2 0.398758 0.680526 0.936524
1172 2 0.387346 0.611785 0.95416
717 2 0.40826 0.907052 0.957326
716 2 0.354385 0.953891 0.948949
1055 2 0.00619193 0.526747 0.594252
449 2 0.114109 0.560052 0.949535
1488 2 0.365677 0.827675 0.980124
1487 2 0.42245 0.783774 0.984148
1661 2 0.130112 0.738078 0.54143
1112 2 0.399354 0.754257 0.77769
1111 1 0.406129 0.796952 0.791713
365 2 0.455164 0.550286 0.981628
1475 2 0.42091 0.66037 0.705679
1474 1 0.396081 0.663124 0.743645
1476 2 0.419017 0.638363 0.774081
1582 1 0.490284 0.566666 0.791017
1584 2 0.456274 0.536887 0.786324
928 1 0.484306 0.727188 0.963081
647 2 0.494096 0.844656 0.679363
1113 2 0.366762 0.81807 0.783365
433 1 0.493269 0.687599 0.647463
1309 1 0.143595 0.596421 0.507806
715 1 0.365847 0.915877 0.971063
914 2 0.1822 0.973313 0.533426
913 1 0.204855 0.9588 0.570053
872 2 0.0232799 0.61889 0.984758
1182 2 0.0363602 0.636745 0.545696
1684 1 0.0887944 0.939048 0.975219
1180 1 0.00530682 0.641876 0.578481
844 1 0.246245 0.994217 0.86664
706 1 0.106193 0.525911 0.863602
1311 2 0.173565 0.624905 0.526673
45 3 0.570028 0.571497 0.647017
129 5 0.664815 0.665066 0.52995
131 6 0.656515 0.752867 0.530056
46 5 0.60234 0.608222 0.625398
41 3 0.503081 0.517474 0.609217
44 4 0.552098 0.545315 0.601313
49 5 0.655533 0.512874 0.643751
50 5 0.641184 0.556094 0.715654
128 3 0.678998 0.708263 0.507118
48 3 0.61645 0.524879 0.679891
47 5 0.537699 0.600094 0.678934
126 5 0.763537 0.695064 0.561101
125 3 0.753329 0.696343 0.506935
1599 2 0.99315 0.702755 0.705373
1547 2 0.871897 0.652987 0.578852
816 2 0.9163 0.920474 0.966447
814 1 0.906923 0.877782 0.953999
1054 1 0.992391 0.511597 0.553687
1546 1 0.845374 0.631892 0.609134
882 2 0.981564 0.585465 0.715132
873 2 0.964329 0.659084 0.993469
1225 1 0.975502 0.549163 0.850773
1632 2 0.656061 0.956537 0.753588
1658 2 0.969976 0.935443 0.530025
1272 2 0.827272 0.906203 0.930435
785 2 0.753607 0.738397 0.879255
1270 1 0.789997 0.930218 0.920472
701 2 0.977284 0.803362 0.612542
1255 1 0.899357 0.738734 0.86305
1267 1 0.827986 0.602344 0.948521
1645 1 0.896902 0.844666 0.768492
516 2 0.857568 0.976497 0.625076
1257 2 0.930437 0.770501 0.872555
865 1 0.995852 0.914928 0.71079
589 1 0.76608 0.813442 0.733542
591 2 0.727309 0.792184 0.723035
441 2 0.87465 0.646295 0.749976
768 2 0.570038 0.958646 0.818504
1268 2 0.801163 0.610407 0.984312
1312 1 0.710809 0.976088 0.609027
866 2 0.997759 0.913507 0.665404
452 2 0.814501 0.798246 0.573839
515 2 0.793403 0.950927 0.605185
1631 2 0.606829 0.997373 0.720795
1277 2 0.783328 0.994081 0.973184
435 2 0.51309 0.68012 0.607256
892 1 0.550049 0.991581 0.657658
786 2 0.738847 0.802456 0.908329
514 1 0.835241 0.937733 0.617055
1330 1 0.648079 0.828942 0.913602
203 2 0.563496 0.532585 0.93751
440 2 0.920142 0.673771 0.798372
1232 2 0.621224 0.777794 0.678312
1366 1 0.546326 0.785767 0.818438
1470 2 0.70158 0.505946 0.841726
1056 2 0.982713 0.549252 0.530151
1367 2 0.502351 0.786635 0.829876
729 2 0.750009 0.618533 0.899916
1421 2 0.559024 0.627695 0.770817
1583 2 0.500233 0.565707 0.835352
728 2 0.713125 0.598471 0.841575
646 1 0.530842 0.858271 0.702381
584 2 0.778444 0.527892 0.931149
555 2 0.526393 0.916893 0.916844
1231 1 0.663911 0.767048 0.667006
202 1 0.523242 0.52225 0.91912
439 1 0.913766 0.637706 0.771462
648 2 0.520447 0.850675 0.745967
434 2 0.527192 0.684829 0.677581