ITEM: TIMESTEP
0
ITEM: NUMBER OF ATOMS
912
ITEM: BOX BOUNDS pp pp pp
-1.0530834119325746e+01 1.0530834119325746e+01
-1.0530834119325746e+01 1.0530834119325746e+01
-1.0530834119325746e+01 1.0530834119325746e+01
ITEM: ATOMS id type xs ys zs
18 5 0.315814 0.481754 0.477827
20 3 0.414835 0.449965 0.499519
22 5 0.415211 0.429996 0.445797
1491 2 0.181328 0.242979 0.0641279
1489 1 0.153062 0.207395 0.0635404
1098 2 0.130247 0.17188 0.206049
896 2 0.230173 0.271876 0.358641
1196 2 0.0785551 0.279419 0.186624
931 1 0.0230988 0.0991138 0.0181636
200 2 0.278083 0.0883298 0.104701
1502 2 0.485597 0.0764288 0.454006
1097 2 0.116726 0.185943 0.136868
1096 1 0.0961671 0.178119 0.176637
784 1 0.0771349 0.430365 0.111222
786 2 0.0834457 0.400446 0.144845
242 2 0.167687 0.0745304 0.0914937
933 2 0.0569355 0.103919 0.0481213
895 1 0.201699 0.279873 0.393148
1195 1 0.0728265 0.322319 0.200487
436 1 0.305325 0.251015 0.310872
409 1 0.214418 0.456482 0.167006
438 2 0.293736 0.242223 0.267816
897 2 0.204654 0.324671 0.400212
1197 2 0.0808023 0.321003 0.24521
1189 1 0.272655 0.13552 0.170942
1191 2 0.248304 0.171286 0.157038
1190 2 0.252793 0.122595 0.209722
1212 2 0.15327 0.0717185 0.259258
1175 2 0.191757 0.400266 0.31025
439 1 0.0589716 0.440013 0.324878
1210 1 0.182962 0.104139 0.270781
346 1 0.168968 0.402515 0.407388
1211 2 0.207742 0.0855902 0.304058
347 2 0.126937 0.412317 0.421628
441 2 0.0354318 0.4062 0.344061
440 2 0.0502531 0.476196 0.35096
1141 1 0.236374 0.00393833 0.337418
275 2 0.211668 0.299696 0.201837
348 2 0.195191 0.409038 0.443929
888 2 0.300975 0.406866 0.0613679
785 2 0.117634 0.450306 0.105963
886 1 0.31034 0.365761 0.0783419
1490 2 0.118536 0.220703 0.0371521
201 2 0.304115 0.0380822 0.0603817
410 2 0.257101 0.443314 0.158624
754 1 0.436929 0.162838 0.000311409
276 2 0.276249 0.275199 0.18194
274 1 0.234038 0.26146 0.191686
1030 1 0.44856 0.494643 0.119952
1176 2 0.256812 0.386802 0.282807
1277 2 0.292439 0.120847 0.466936
411 2 0.204664 0.438389 0.20754
329 2 0.089146 0.138513 0.434974
328 1 0.0623756 0.111517 0.410073
1166 2 0.279455 0.286537 0.452261
294 2 0.465263 0.0617197 0.344687
1174 1 0.212498 0.384623 0.272959
129 2 0.0284062 0.448987 0.0454776
1278 2 0.2342 0.0856585 0.490101
887 2 0.273302 0.341008 0.069343
975 2 0.0350673 0.0812945 0.209991
649 1 0.194467 0.328248 0.030892
241 1 0.128379 0.0526875 0.0849176
1143 2 0.273756 0.0289881 0.343784
199 1 0.268287 0.0653051 0.0667616
755 2 0.439792 0.185916 0.0393587
330 2 0.0290563 0.0992197 0.438429
127 1 0.00852612 0.473254 0.012593
395 2 0.134858 0.28775 0.336479
789 2 0.0816383 0.242085 0.491853
788 2 0.144568 0.242913 0.457129
708 2 0.318618 0.155035 0.353448
437 2 0.327978 0.290358 0.308769
650 2 0.159448 0.356007 0.0391743
706 1 0.316295 0.117152 0.378447
1000 1 0.353567 0.366566 0.302134
463 1 0.488038 0.0420895 0.0997066
697 1 0.159273 0.0509889 0.461004
1055 2 0.481961 0.166627 0.284263
707 2 0.355789 0.0960067 0.370789
1165 1 0.296597 0.289847 0.494222
105 2 0.0298013 0.486741 0.174568
1090 1 0.468528 0.328127 0.252898
1091 2 0.491366 0.292824 0.27015
1128 2 0.496995 0.37595 0.0470563
462 2 0.425752 0.220183 0.140723
401 2 0.355108 0.311046 0.143888
402 2 0.393467 0.294695 0.202437
400 1 0.355139 0.284056 0.180453
391 1 0.347588 0.441905 0.197859
461 2 0.496707 0.231044 0.136974
460 1 0.463624 0.203987 0.121517
1001 2 0.354965 0.408254 0.320178
243 2 0.130761 0.0164607 0.112257
465 2 0.477856 0.0858199 0.10674
1002 2 0.397047 0.35346 0.300346
360 2 0.383283 0.33779 0.0474328
1501 1 0.478587 0.0571231 0.494548
197 2 0.0327694 0.461287 0.493151
358 1 0.423173 0.332371 0.0263397
699 2 0.120399 0.0676295 0.44435
787 1 0.113942 0.214708 0.475348
1127 2 0.495467 0.438945 0.0816386
800 2 0.00048227 0.309192 0.461552
392 2 0.367549 0.410425 0.223859
198 2 0.0589236 0.394507 0.497948
396 2 0.112862 0.231712 0.297203
104 2 0.0362883 0.479117 0.245747
973 1 0.018034 0.0435597 0.228737
1286 2 0.00376266 0.175378 0.39218
394 1 0.0994094 0.272301 0.312601
834 2 0.00536216 0.283437 0.0745479
393 2 0.381922 0.467351 0.182393
293 2 0.418639 0.036576 0.2961
196 1 0.0597751 0.431644 0.471764
292 1 0.421633 0.064052 0.332178
698 2 0.184467 0.0419622 0.424271
47 5 0.531349 0.441212 0.268816
50 5 0.609195 0.38321 0.31662
48 3 0.616952 0.435057 0.321773
49 5 0.645399 0.456755 0.281434
54 5 0.71979 0.473773 0.375729
52 3 0.66734 0.488717 0.382102
58 4 0.684872 0.481837 0.495165
51 4 0.636374 0.439862 0.373564
45 3 0.546463 0.459952 0.31613
46 5 0.520552 0.429217 0.349973
246 2 0.732884 0.0456741 0.269169
606 2 0.644374 0.0132883 0.470943
1110 2 0.800965 0.166556 0.496586
623 2 0.877387 0.00681489 0.0153416
833 2 0.966618 0.341166 0.0563006
244 1 0.73264 0.0706912 0.231227
240 2 0.735483 0.018733 0.122071
1287 2 0.964511 0.198803 0.336707
795 2 0.682762 0.417037 0.052989
753 2 0.743382 0.493465 0.082945
1492 1 0.707126 0.266281 0.462879
122 2 0.804596 0.301758 0.0484807
336 2 0.629617 0.303083 0.0220773
794 2 0.718721 0.361239 0.0805605
1541 2 0.664528 0.194801 0.448917
1202 2 0.510587 0.258568 0.448703
751 1 0.712104 0.498588 0.0503729
932 2 0.996865 0.0664336 0.0357497
1056 2 0.537496 0.197121 0.250313
1054 1 0.507706 0.204078 0.283922
299 2 0.930168 0.0322075 0.355187
1242 2 0.567093 0.115421 0.383566
605 2 0.665022 0.0747648 0.439944
1494 2 0.674545 0.290558 0.483241
1493 2 0.725822 0.241933 0.496391
1540 1 0.630954 0.165195 0.441058
334 1 0.599032 0.271172 0.0115081
1542 2 0.595467 0.191056 0.429339
1126 1 0.523924 0.406728 0.0668825
644 2 0.763241 0.119167 0.29707
369 2 0.616838 0.373421 0.187728
1208 2 0.6168 0.14988 0.25145
1092 2 0.500838 0.356625 0.238426
219 2 0.72008 0.387132 0.244463
1203 2 0.515459 0.225313 0.385166
1425 2 0.588111 0.299574 0.168735
1424 2 0.599926 0.277815 0.101255
1423 1 0.592973 0.262185 0.14336
1207 1 0.604323 0.109825 0.233975
1209 2 0.643487 0.0882719 0.225781
368 2 0.559442 0.393404 0.149349
367 1 0.571895 0.379447 0.190769
218 2 0.718458 0.404341 0.174693
217 1 0.702619 0.374014 0.204607
1240 1 0.545952 0.0842488 0.358133
335 2 0.621785 0.231984 0.0149843
1201 1 0.518389 0.217929 0.429913
604 1 0.6711 0.0297641 0.438084
123 2 0.820105 0.347405 0.101795
326 2 0.64606 0.07269 0.140293
325 1 0.651686 0.0331919 0.118528
538 1 0.885692 0.486142 0.0368598
1146 2 0.780309 0.024689 0.0381505
464 2 0.524654 0.0430993 0.0728048
1241 2 0.563757 0.0894158 0.316639
252 2 0.88736 0.065841 0.479068
327 2 0.634569 0.0404918 0.0770642
1053 2 0.980993 0.34316 0.22963
1051 1 0.940069 0.355223 0.21397
625 1 0.963298 0.336808 0.376705
627 2 0.974886 0.296706 0.358732
720 2 0.890694 0.22565 0.0413933
719 2 0.943042 0.179453 0.0243014
153 2 0.821446 0.194632 0.379381
238 1 0.780129 0.0106793 0.119368
643 1 0.774681 0.135554 0.337888
1156 1 0.660079 0.210935 0.289661
1036 1 0.82579 0.460678 0.348437
518 2 0.838689 0.452842 0.0917816
152 2 0.88812 0.205422 0.403973
645 2 0.795382 0.100859 0.358701
1157 2 0.674181 0.187025 0.325645
974 2 0.982469 0.0579834 0.25308
757 1 0.809374 0.0262983 0.459963
121 1 0.811102 0.303652 0.0934201
212 2 0.689908 0.223917 0.158654
718 1 0.898496 0.181664 0.0330353
412 1 0.80525 0.449515 0.492206
929 2 0.884024 0.0529523 0.253588
211 1 0.723735 0.201219 0.138504
298 1 0.928384 0.0690849 0.328685
1038 2 0.843602 0.457997 0.306711
151 1 0.844471 0.213491 0.413727
1158 2 0.64401 0.249626 0.307275
113 2 0.694286 0.156647 0.00155173
300 2 0.942636 0.102997 0.355375
1205 2 0.854037 0.299149 0.294945
838 1 0.910201 0.235167 0.258874
626 2 0.921558 0.344863 0.36063
1052 2 0.943267 0.350471 0.168885
114 2 0.685668 0.160938 0.0727835
112 1 0.662397 0.160027 0.0337563
1285 1 0.966301 0.19906 0.382119
213 2 0.751255 0.233643 0.122478
1543 1 0.847034 0.164384 0.15858
250 1 0.932689 0.068991 0.479998
832 1 0.971736 0.310258 0.0892248
1545 2 0.859726 0.177271 0.116888
1544 2 0.802048 0.170806 0.159291
1204 1 0.837991 0.317869 0.333123
413 2 0.83762 0.454061 0.460631
930 2 0.867092 0.0785205 0.188578
420 2 0.911063 0.436462 0.230378
758 2 0.764518 0.019238 0.458082
840 2 0.885052 0.205658 0.235162
1206 2 0.833241 0.282946 0.361815
1037 2 0.833898 0.419961 0.366925
839 2 0.922422 0.266699 0.228512
418 1 0.88426 0.473137 0.228983
539 2 0.931008 0.484808 0.0336695
517 1 0.809403 0.445021 0.125644
519 2 0.832379 0.455893 0.163319
928 1 0.865027 0.0409595 0.214081
793 1 0.683346 0.371604 0.0539785
245 2 0.768958 0.0564146 0.207932
8 5 0.328254 0.478755 0.776888
6 3 0.326472 0.45173 0.728746
7 5 0.294307 0.411349 0.739514
11 5 0.251759 0.425459 0.644322
16 4 0.337776 0.45706 0.567895
13 3 0.29647 0.491863 0.583547
9 4 0.317445 0.487921 0.688722
10 3 0.275467 0.475817 0.652525
15 5 0.249678 0.49841 0.551679
21 5 0.440129 0.415327 0.530196
19 5 0.323833 0.397307 0.503623
17 3 0.341498 0.445939 0.510533
2 5 0.42782 0.468725 0.73439
1 3 0.396363 0.425782 0.722792
3 5 0.399913 0.383368 0.756611
5 7 0.395521 0.437547 0.642352
4 6 0.407241 0.404927 0.673285
25 5 0.4644 0.497212 0.587846
403 1 0.265313 0.108838 0.671876
1481 2 0.163501 0.381265 0.582223
380 2 0.249358 0.191355 0.712164
404 2 0.26311 0.0993029 0.627494
405 2 0.23333 0.0826457 0.690758
406 1 0.215152 0.101224 0.937259
381 2 0.215794 0.219412 0.769198
379 1 0.253899 0.222798 0.744662
1428 2 0.148836 0.220883 0.631817
1269 2 0.0256736 0.217457 0.700859
1259 2 0.432734 0.238119 0.709182
1260 2 0.440267 0.309539 0.706176
407 2 0.253531 0.11191 0.915389
1258 1 0.463387 0.271274 0.714343
408 2 0.228438 0.0919425 0.979718
1470 2 0.295628 0.172998 0.806399
1426 1 0.12127 0.242314 0.660907
1183 1 0.155432 0.214089 0.835697
1185 2 0.122534 0.242806 0.823104
1427 2 0.119444 0.285034 0.645506
1167 2 0.272074 0.260596 0.518889
1184 2 0.138353 0.192292 0.871733
1471 1 0.0547793 0.0956644 0.652632
263 2 0.135923 0.125087 0.930932
262 1 0.0953502 0.144777 0.92531
688 1 0.165729 0.0338457 0.704505
747 2 0.0877899 0.0626596 0.887295
489 2 0.187696 0.207988 0.53874
1468 1 0.319246 0.155373 0.840996
732 2 0.25516 0.368884 0.888486
488 2 0.247859 0.177434 0.563508
730 1 0.244502 0.329488 0.908482
746 2 0.0542167 0.0233814 0.837328
731 2 0.209715 0.313368 0.88408
690 2 0.157819 0.026323 0.748623
1421 2 0.392664 0.0349974 0.76894
487 1 0.219581 0.212248 0.570844
745 1 0.0889501 0.0222068 0.866615
264 2 0.0692772 0.126633 0.957813
1472 2 0.0301612 0.0906206 0.6905
1302 2 0.00440542 0.154965 0.592387
638 2 0.0189562 0.276449 0.950542
639 2 0.0541775 0.214419 0.9594
1473 2 0.0935664 0.0735951 0.661233
637 1 0.0449438 0.253786 0.980148
1480 1 0.135923 0.372787 0.617338
1482 2 0.163276 0.373054 0.653632
807 2 0.346073 0.154686 0.678113
613 1 0.382925 0.319183 0.601182
615 2 0.363378 0.313344 0.56057
1429 1 0.129147 0.346404 0.813957
1559 2 0.302175 0.261644 0.932229
943 1 0.0984085 0.407745 0.922181
1558 1 0.319404 0.236918 0.966248
944 2 0.108656 0.376978 0.89034
1431 2 0.0885576 0.351883 0.79426
945 2 0.0601903 0.392159 0.941205
1276 1 0.272045 0.106098 0.504778
1430 2 0.15896 0.360782 0.782813
1560 2 0.283012 0.221063 0.988377
651 2 0.208883 0.34014 0.989465
805 1 0.389825 0.162221 0.687831
806 2 0.409392 0.169415 0.647447
359 2 0.412312 0.31535 0.985624
756 2 0.396661 0.174773 0.982948
1469 2 0.360724 0.173487 0.836877
446 2 0.380255 0.0822148 0.972046
614 2 0.404915 0.280178 0.608957
445 1 0.370208 0.0610613 0.933096
1537 1 0.351854 0.0064505 0.542991
1422 2 0.329575 0.0676091 0.757856
575 2 0.108243 0.487295 0.887478
1150 1 0.315289 0.470628 0.910709
1420 1 0.347854 0.0274198 0.768634
1068 2 0.404959 0.327336 0.880143
1503 2 0.435301 0.0668062 0.504448
386 2 0.0541831 0.400092 0.623524
535 1 0.403522 0.182827 0.560008
526 1 0.469236 0.0732787 0.73419
385 1 0.00968726 0.408555 0.627262
603 2 0.45717 0.241199 0.863115
1151 2 0.351151 0.442728 0.911672
527 2 0.434887 0.0913809 0.710568
1066 1 0.408314 0.36974 0.896147
714 2 0.236547 0.0289075 0.894353
1067 2 0.451439 0.373298 0.910039
1271 2 0.449019 0.0751162 0.896387
602 2 0.438157 0.253516 0.794899
601 1 0.420871 0.244666 0.835988
500 2 0.497327 0.205153 0.942851
537 2 0.448857 0.182129 0.556899
1272 2 0.481531 0.0775043 0.832325
1270 1 0.488462 0.0857613 0.876475
1539 2 0.314549 0.0321565 0.53938
1445 2 0.257035 0.495862 0.840074
387 2 0.000552231 0.436883 0.592917
854 2 0.0204951 0.0156405 0.607039
447 2 0.342641 0.0898581 0.911272
1152 2 0.315136 0.490404 0.951628
799 1 0.0105945 0.307392 0.505823
536 2 0.390404 0.212887 0.528547
713 2 0.276958 0.0110247 0.837662
1102 1 0.00487329 0.356856 0.750337
1103 2 0.0178054 0.380414 0.713687
59 3 0.669076 0.490537 0.546278
66 7 0.677364 0.399466 0.53285
63 5 0.754146 0.454241 0.595865
61 5 0.614517 0.485846 0.561834
64 5 0.672559 0.443913 0.639162
62 3 0.701344 0.442789 0.592123
65 6 0.695576 0.393778 0.573886
26 5 0.518245 0.486213 0.520457
1267 1 0.982652 0.229303 0.709477
1020 2 0.970769 0.374516 0.90156
251 2 0.945277 0.0420901 0.514398
1060 1 0.852136 0.497957 0.623335
1268 2 0.985062 0.273088 0.721414
1518 2 0.762803 0.190082 0.899045
830 2 0.602452 0.375058 0.519639
1062 2 0.850711 0.484117 0.580069
444 2 0.936734 0.273004 0.622717
443 2 0.942933 0.344344 0.628955
442 1 0.91332 0.311666 0.617968
1109 2 0.810457 0.173859 0.56746
1131 2 0.560848 0.0285012 0.956965
1130 2 0.618398 0.0682303 0.973586
1159 1 0.526752 0.390974 0.92622
1018 1 0.970524 0.331439 0.916047
1019 2 0.953555 0.307779 0.881151
803 2 0.921837 0.480255 0.888033
1300 1 0.965773 0.166739 0.571546
1144 1 0.780424 0.0344926 0.993773
176 2 0.883323 0.329526 0.94361
855 2 0.948748 0.0120913 0.609562
710 2 0.54639 0.0128632 0.515049
1129 1 0.588053 0.0396119 0.991633
453 2 0.740704 0.47743 0.965731
780 2 0.568368 0.261056 0.560183
801 2 0.978552 0.280608 0.52375
1160 2 0.542682 0.397599 0.968266
451 1 0.743466 0.499333 0.926006
528 2 0.503479 0.102679 0.728849
558 2 0.57574 0.423719 0.670621
170 2 0.573338 0.189374 0.722881
556 1 0.56577 0.383438 0.652086
831 2 0.61336 0.34717 0.584984
829 1 0.620543 0.339153 0.54083
169 1 0.561646 0.158644 0.691505
557 2 0.576963 0.353112 0.684032
499 1 0.519677 0.237126 0.919534
501 2 0.548786 0.254885 0.949581
171 2 0.546508 0.183322 0.656472
414 2 0.810553 0.407214 0.507953
779 2 0.551617 0.193046 0.544038
767 2 0.568759 0.121969 0.843135
1557 2 0.792542 0.459987 0.671767
778 1 0.541328 0.226752 0.572735
701 2 0.839445 0.407957 0.732424
812 2 0.768195 0.303465 0.681238
1556 2 0.748821 0.403392 0.678981
72 2 0.524751 0.477248 0.91295
157 1 0.6583 0.312988 0.855711
1460 2 0.64204 0.303885 0.762618
761 2 0.528733 0.0299113 0.66957
771 2 0.801885 0.107339 0.921096
1555 1 0.761536 0.441843 0.699603
1351 1 0.995151 0.0261627 0.766199
166 1 0.931197 0.230228 0.831657
168 2 0.960779 0.225973 0.797419
1435 1 0.889503 0.0484949 0.650682
1161 2 0.553389 0.358461 0.908935
804 2 0.874697 0.458754 0.937854
768 2 0.599022 0.183394 0.864993
1108 1 0.778141 0.171021 0.535632
333 2 0.665617 0.128048 0.662941
811 1 0.737141 0.321592 0.653443
766 1 0.606241 0.147235 0.838424
1104 2 0.964151 0.373938 0.761077
159 2 0.6789 0.275797 0.871771
1517 2 0.700567 0.182542 0.863882
158 2 0.691698 0.343488 0.85126
721 1 0.769663 0.383509 0.853697
100 1 0.788314 0.0351473 0.737024
1436 2 0.887801 0.0939022 0.651554
332 2 0.714344 0.120784 0.6106
167 2 0.930095 0.189091 0.850944
377 2 0.853453 0.329762 0.5678
1070 2 0.792553 0.247835 0.805864
1437 2 0.859663 0.0353643 0.682346
1069 1 0.817925 0.250825 0.768276
455 2 0.831392 0.179028 0.690776
102 2 0.754308 0.0513963 0.711627
376 1 0.815044 0.327656 0.543597
853 1 0.984153 0.00467616 0.582049
1461 2 0.657203 0.307692 0.692459
1459 1 0.623081 0.300055 0.721491
177 2 0.820029 0.349886 0.916296
331 1 0.695753 0.0987152 0.645712
1181 2 0.702347 0.0203836 0.614666
700 1 0.864631 0.379378 0.75721
1301 2 0.960258 0.135322 0.539173
1071 2 0.856755 0.229804 0.779037
723 2 0.769492 0.424009 0.874318
496 1 0.719282 0.058917 0.845695
770 2 0.851778 0.156848 0.936135
456 2 0.892189 0.192742 0.654967
498 2 0.684023 0.0624583 0.817238
454 1 0.851416 0.173193 0.650397
1516 1 0.723583 0.211367 0.890432
101 2 0.775987 0.0443278 0.779794
1337 2 0.720948 0.491603 0.774007
813 2 0.758145 0.324508 0.613247
1352 2 0.952424 0.0173494 0.778934
769 1 0.824263 0.142481 0.902938
802 1 0.89253 0.44691 0.897764
378 2 0.819618 0.290246 0.518199
175 1 0.838494 0.325515 0.94992
497 2 0.726068 0.0141778 0.849916
722 2 0.803003 0.386515 0.822957
702 2 0.841718 0.340144 0.75615
42 5 0.453464 0.520543 0.330464
43 5 0.496081 0.532453 0.255709
40 5 0.454606 0.638624 0.299406
33 5 0.453266 0.661569 0.480837
38 3 0.499934 0.614495 0.320259
37 4 0.49369 0.614356 0.377057
1045 1 0.239986 0.668274 0.34394
1279 1 0.142571 0.953848 0.177349
1281 2 0.165888 0.916982 0.164593
1280 2 0.111957 0.93824 0.207093
1149 2 0.090413 0.773782 0.177164
1147 1 0.104224 0.816466 0.169892
878 2 0.326653 0.915691 0.279984
1046 2 0.274818 0.661727 0.372389
1047 2 0.256191 0.656417 0.303169
1058 2 0.155979 0.873003 0.345013
1086 2 0.270948 0.594503 0.233738
1085 2 0.246773 0.527469 0.224321
777 2 0.238715 0.815306 0.129459
885 2 0.0508798 0.639042 0.181149
660 2 0.0556626 0.850885 0.094684
797 2 0.496019 0.743385 0.00389649
883 1 0.0862028 0.667323 0.185387
318 2 0.133443 0.563746 0.0186672
884 2 0.108786 0.651982 0.221721
1475 2 0.186175 0.740233 0.161567
1293 2 0.084832 0.554908 0.268278
1148 2 0.0793725 0.841519 0.198532
1291 1 0.108954 0.579358 0.298041
1474 1 0.217409 0.727636 0.131052
1292 2 0.150647 0.561339 0.29645
658 1 0.0238245 0.859132 0.0633185
1084 1 0.235088 0.567767 0.241784
775 1 0.237398 0.86073 0.130132
776 2 0.21902 0.872189 0.0901766
1476 2 0.199039 0.738304 0.0908747
353 2 0.331384 0.651029 0.185613
1519 1 0.29746 0.528029 0.0362726
1566 2 0.349353 0.628163 0.430836
352 1 0.343074 0.65454 0.22939
792 2 0.117175 0.93817 0.429014
286 1 0.233101 0.803432 0.346766
288 2 0.270589 0.819671 0.326857
1059 2 0.179327 0.938656 0.327371
1564 1 0.31215 0.634984 0.456034
1057 1 0.143054 0.916548 0.343528
859 1 0.463732 0.74403 0.499495
877 1 0.330578 0.880766 0.308799
256 1 0.0450457 0.568675 0.410313
257 2 0.0623798 0.58276 0.370732
287 2 0.235864 0.758405 0.341251
879 2 0.333085 0.900094 0.349855
659 2 0.0358413 0.898992 0.0450907
304 1 0.0313444 0.918691 0.240184
305 2 0.0238885 0.896159 0.278942
791 2 0.0600533 0.925543 0.470779
103 1 0.0262111 0.509668 0.213645
790 1 0.105209 0.920649 0.469205
155 2 0.164296 0.602517 0.108468
1033 1 0.362955 0.980296 0.0884591
1034 2 0.405822 0.995332 0.0870994
696 2 0.268056 0.928484 0.185169
1521 2 0.255422 0.53245 0.0529677
1548 2 0.221512 0.830618 0.431587
154 1 0.190256 0.56683 0.0976048
1520 2 0.321508 0.560397 0.0572364
232 1 0.431654 0.573295 0.0129864
128 2 0.0366785 0.50825 0.00565071
1354 1 0.380814 0.790333 0.00114612
354 2 0.362163 0.695641 0.232826
156 2 0.195825 0.54445 0.136766
968 2 0.42843 0.913674 0.476158
1405 1 0.390565 0.829786 0.125129
763 1 0.163739 0.717485 0.0118995
668 2 0.277555 0.676813 0.0987768
1406 2 0.3475 0.840569 0.134855
91 1 0.458592 0.96248 0.210228
1530 2 0.129607 0.789617 0.491329
92 2 0.473827 0.992213 0.179417
1368 2 0.386744 0.801072 0.289461
1565 2 0.32809 0.646883 0.496898
1400 2 0.492463 0.796212 0.0989838
1375 1 0.0334704 0.737373 0.0153032
1331 2 0.343864 0.979955 0.467061
1366 1 0.406087 0.762381 0.27552
1031 2 0.476908 0.523199 0.141081
669 2 0.345888 0.679401 0.0766282
921 2 0.444798 0.732085 0.183667
1546 1 0.213526 0.843977 0.474286
1547 2 0.177234 0.87115 0.471125
920 2 0.469577 0.665093 0.191709
1035 2 0.362964 0.943428 0.0618835
1032 2 0.433515 0.518039 0.0840107
919 1 0.461403 0.696854 0.160247
667 1 0.314303 0.650825 0.0924786
1367 2 0.431236 0.748832 0.310867
1330 1 0.3337 0.955301 0.430259
1142 2 0.243949 0.981871 0.298417
185 2 0.0351888 0.748846 0.452377
1376 2 0.0272754 0.780714 0.0274956
1332 2 0.296224 0.932375 0.441897
1407 2 0.389734 0.818031 0.0812363
695 2 0.303694 0.990691 0.179989
93 2 0.441541 0.928292 0.185613
1377 2 0.0784392 0.733307 0.0101313
258 2 0.0791129 0.573446 0.440014
306 2 0.0297206 0.962544 0.252005
694 1 0.289892 0.959578 0.210105
234 2 0.463105 0.59694 0.0357293
56 5 0.683096 0.558887 0.454891
53 5 0.656285 0.535111 0.352743
55 3 0.656902 0.509912 0.451377
41 3 0.500238 0.539792 0.30785
57 5 0.603611 0.518671 0.463239
44 4 0.5454 0.512342 0.329851
39 5 0.541489 0.637449 0.296095
36 5 0.503591 0.704842 0.385906
34 3 0.523057 0.652605 0.403197
35 5 0.57647 0.645848 0.398173
30 4 0.52575 0.600824 0.492918
32 5 0.536137 0.688965 0.498202
31 3 0.506682 0.650569 0.4744
1168 1 0.948039 0.697786 0.107579
628 1 0.708945 0.828518 0.10012
1433 2 0.747279 0.779118 0.480029
1317 2 0.878314 0.803578 0.00470647
622 1 0.918874 0.993698 0.0284661
1525 1 0.948906 0.909388 0.499322
966 2 0.850621 0.58761 0.15952
629 2 0.691919 0.854441 0.0668996
1169 2 0.986893 0.70085 0.0842022
983 2 0.921887 0.904838 0.357465
1111 1 0.789593 0.715095 0.109008
1163 2 0.842198 0.899984 0.180113
374 2 0.693852 0.98309 0.361548
1170 2 0.916409 0.714063 0.079293
540 2 0.876821 0.526192 0.0564232
184 1 0.989811 0.748997 0.449864
433 1 0.788697 0.88902 0.314606
1187 2 0.565196 0.647941 0.0417104
419 2 0.909435 0.504872 0.208378
952 1 0.684774 0.805018 0.282721
1432 1 0.790382 0.773329 0.493223
108 2 0.58851 0.861235 0.0600376
1506 2 0.554207 0.86339 0.355442
1504 1 0.573357 0.822408 0.359831
1505 2 0.603768 0.820372 0.326119
954 2 0.694852 0.79705 0.326314
1399 1 0.527357 0.785986 0.0717206
239 2 0.786384 0.972857 0.143777
1065 2 0.5466 0.991451 0.33299
1064 2 0.536509 0.950084 0.27508
1063 1 0.555558 0.950122 0.316343
1188 2 0.529089 0.653682 0.103597
1186 1 0.538187 0.624624 0.0698581
1106 2 0.878349 0.630155 0.434261
1401 2 0.558653 0.76819 0.0994574
107 2 0.596469 0.926609 0.088839
106 1 0.606503 0.902161 0.0518652
1315 1 0.862668 0.761032 0.00793679
965 2 0.90027 0.62487 0.12328
759 2 0.827319 0.984694 0.463502
773 2 0.842254 0.627892 0.322228
1162 1 0.79883 0.88768 0.185885
375 2 0.645286 0.965167 0.311681
951 2 0.634135 0.822849 0.435966
949 1 0.670776 0.817595 0.462336
1164 2 0.793039 0.887146 0.230959
1364 2 0.694617 0.642941 0.0221034
1363 1 0.732114 0.622569 0.0377371
1112 2 0.772185 0.750164 0.132085
752 2 0.706395 0.543552 0.0470284
1365 2 0.747779 0.650638 0.0698653
373 1 0.689822 0.971961 0.317669
1107 2 0.91553 0.68449 0.463104
624 2 0.911365 0.964469 0.0624475
1532 2 0.937646 0.831241 0.18703
435 2 0.758001 0.921928 0.320947
953 2 0.716551 0.834408 0.268867
1044 2 0.936875 0.570786 0.394287
1257 2 0.781445 0.64187 0.170319
772 1 0.807712 0.653875 0.308184
337 1 0.616064 0.727575 0.142316
1249 1 0.965009 0.836089 0.340348
1250 2 0.965984 0.798954 0.36653
1043 2 0.878316 0.538211 0.368279
1042 1 0.900387 0.577939 0.368153
1251 2 0.955446 0.820459 0.298758
1255 1 0.764869 0.60858 0.196443
186 2 0.976292 0.767636 0.489047
1533 2 0.942595 0.75983 0.193558
774 2 0.817882 0.695505 0.323318
434 2 0.825289 0.902972 0.337669
1434 2 0.797845 0.728745 0.48853
207 2 0.956727 0.936807 0.180824
1105 1 0.878239 0.659234 0.469188
206 2 0.896837 0.975448 0.171515
205 1 0.917139 0.936926 0.158502
1256 2 0.778429 0.619264 0.238485
964 1 0.878852 0.584793 0.124016
1531 1 0.937607 0.797885 0.217898
984 2 0.903439 0.93316 0.420901
1113 2 0.817249 0.734188 0.0784137
339 2 0.654286 0.747641 0.128107
338 2 0.617159 0.731721 0.187561
630 2 0.731198 0.857622 0.127013
982 1 0.899408 0.939663 0.376102
12 5 0.232462 0.509301 0.663203
14 5 0.308365 0.544177 0.588725
29 5 0.459111 0.610333 0.563907
27 3 0.499752 0.582264 0.539234
24 3 0.475186 0.514492 0.538808
23 4 0.435714 0.503394 0.501141
1536 2 0.223084 0.88395 0.749515
1549 1 0.117593 0.657004 0.747702
1550 2 0.0888173 0.624645 0.733906
1551 2 0.129442 0.644536 0.789769
1534 1 0.196745 0.89703 0.714864
1535 2 0.164036 0.865539 0.712896
765 2 0.179295 0.757657 0.997419
1465 1 0.00717709 0.735848 0.733186
1553 2 0.0914543 0.97997 0.99481
618 2 0.0644385 0.871179 0.741997
1466 2 0.0457649 0.71999 0.751212
764 2 0.175637 0.688212 0.979234
617 2 0.063601 0.799339 0.739761
616 1 0.089104 0.834592 0.752885
693 2 0.269784 0.72032 0.878463
691 1 0.281414 0.762071 0.892141
692 2 0.30744 0.755225 0.928765
1412 2 0.261348 0.613451 0.807885
471 2 0.281683 0.928597 0.661671
1444 1 0.229965 0.507041 0.805322
1484 2 0.2546 0.812361 0.556179
1446 2 0.188549 0.51034 0.823742
748 1 0.0181881 0.578749 0.689074
642 2 0.0226208 0.840421 0.837618
640 1 0.0116386 0.825477 0.87911
641 2 0.0508696 0.810683 0.896646
1413 2 0.30956 0.652263 0.844436
1411 1 0.266672 0.653115 0.829423
1509 2 0.164564 0.875143 0.977929
681 2 0.0831414 0.865825 0.631988
1508 2 0.225819 0.85064 0.949396
1353 2 0.00977168 0.98731 0.747701
469 1 0.325996 0.938597 0.663025
266 2 0.156614 0.693006 0.654243
1512 2 0.291328 0.710517 0.645114
1510 1 0.291622 0.666722 0.657253
1487 2 0.276231 0.81805 0.819368
265 1 0.162689 0.715749 0.615367
687 2 0.25363 0.578057 0.972682
267 2 0.200976 0.739363 0.621845
1486 1 0.280561 0.85932 0.800833
686 2 0.248294 0.609597 0.908312
576 2 0.0618058 0.532526 0.856423
685 1 0.224529 0.60054 0.945977
680 2 0.0668203 0.845169 0.565103
679 1 0.0534856 0.873153 0.598339
1507 1 0.196397 0.843139 0.983212
470 2 0.330774 0.96416 0.700297
749 2 0.00796252 0.598889 0.649637
783 2 0.190974 0.915905 0.575781
1554 2 0.083899 0.947922 0.930916
1178 2 0.161867 0.555208 0.513554
689 2 0.186705 0.996187 0.690107
1488 2 0.262056 0.887498 0.831312
1483 1 0.274169 0.80833 0.596999
1538 2 0.348274 0.986847 0.583837
1528 1 0.106849 0.752836 0.505284
316 1 0.096994 0.561519 0.991611
1039 1 0.373573 0.644316 0.925568
1041 2 0.398758 0.680526 0.936524
1040 2 0.387346 0.611785 0.95416
1511 2 0.304467 0.667067 0.700847
467 2 0.412122 0.869258 0.64601
585 2 0.40826 0.907052 0.957326
969 2 0.457276 0.961557 0.521344
584 2 0.354385 0.953891 0.948949
466 1 0.427966 0.841669 0.613556
923 2 0.00619193 0.526747 0.594252
317 2 0.114109 0.560052 0.949535
1356 2 0.365677 0.827675 0.980124
1355 2 0.42245 0.783774 0.984148
1529 2 0.130112 0.738078 0.54143
861 2 0.491461 0.763161 0.530002
980 2 0.399354 0.754257 0.77769
979 1 0.406129 0.796952 0.791713
233 2 0.455164 0.550286 0.981628
1343 2 0.42091 0.66037 0.705679
1342 1 0.396081 0.663124 0.743645
1344 2 0.419017 0.638363 0.774081
1450 1 0.490284 0.566666 0.791017
1452 2 0.456274 0.536887 0.786324
796 1 0.484306 0.727188 0.963081
515 2 0.494096 0.844656 0.679363
981 2 0.366762 0.81807 0.783365
1485 2 0.313009 0.831648 0.593368
301 1 0.493269 0.687599 0.647463
1177 1 0.143595 0.596421 0.507806
583 1 0.365847 0.915877 0.971063
468 2 0.434717 0.868866 0.577776
967 1 0.456571 0.917156 0.511674
782 2 0.1822 0.973313 0.533426
860 2 0.432047 0.723087 0.524454
781 1 0.204855 0.9588 0.570053
740 2 0.0232799 0.61889 0.984758
1050 2 0.0363602 0.636745 0.545696
1552 1 0.0887944 0.939048 0.975219
1048 1 0.00530682 0.641876 0.578481
712 1 0.246245 0.994217 0.86664
574 1 0.106193 0.525911 0.863602
1179 2 0.173565 0.624905 0.526673
60 5 0.689844 0.53836 0.561291
28 5 0.543557 0.576071 0.570725
1467 2 0.99315 0.702755 0.705373
682 1 0.906923 0.877782 0.953999
750 2 0.981564 0.585465 0.715132
711 2 0.579644 0.998673 0.577174
1500 2 0.656061 0.956537 0.753588
1335 2 0.541182 0.518209 0.736242
1415 2 0.871897 0.652987 0.578852
569 2 0.977284 0.803362 0.612542
684 2 0.9163 0.920474 0.966447
1135 1 0.827986 0.602344 0.948521
1439 2 0.711708 0.600266 0.524844
709 1 0.584791 0.995566 0.532126
922 1 0.992391 0.511597 0.553687
1414 1 0.845374 0.631892 0.609134
1136 2 0.801163 0.610407 0.984312
1561 1 0.563058 0.841497 0.547749
741 2 0.964329 0.659084 0.993469
1093 1 0.975502 0.549163 0.850773
1145 2 0.783328 0.994081 0.973184
303 2 0.51309 0.68012 0.607256
1526 2 0.969976 0.935443 0.530025
1334 2 0.61227 0.509793 0.742748
1562 2 0.56027 0.85388 0.591388
1198 1 0.648079 0.828942 0.913602
71 2 0.563496 0.532585 0.93751
1100 2 0.621224 0.777794 0.678312
1234 1 0.546326 0.785767 0.818438
1338 2 0.70158 0.505946 0.841726
924 2 0.982713 0.549252 0.530151
1235 2 0.502351 0.786635 0.829876
1140 2 0.827272 0.906203 0.930435
1289 2 0.559024 0.627695 0.770817
1451 2 0.500233 0.565707 0.835352
1333 1 0.577335 0.500389 0.715243
514 1 0.530842 0.858271 0.702381
452 2 0.778444 0.527892 0.931149
423 2 0.526393 0.916893 0.916844
1099 1 0.663911 0.767048 0.667006
70 1 0.523242 0.52225 0.91912
516 2 0.520447 0.850675 0.745967
302 2 0.527192 0.684829 0.677581
1463 2 0.655038 0.725131 0.969001
798 2 0.523541 0.724116 0.940352
1236 2 0.553093 0.743799 0.802364
1101 2 0.659521 0.736924 0.633261
1200 2 0.618905 0.823079 0.87925
421 1 0.505841 0.90687 0.95612
653 2 0.753607 0.738397 0.879255
1155 2 0.773644 0.952082 0.764522
1462 1 0.645932 0.680741 0.972485
1440 2 0.762749 0.643796 0.550662
1563 2 0.531077 0.866116 0.526853
635 2 0.516191 0.995581 0.848552
1288 1 0.585878 0.663869 0.76483
1464 2 0.654185 0.664126 0.930996
422 2 0.536927 0.916168 0.987943
1199 2 0.65289 0.874013 0.916899
1316 2 0.825673 0.760461 0.981544
739 1 0.97832 0.618658 0.978123
762 2 0.532765 0.959881 0.685259
1061 2 0.846311 0.542974 0.621095
1138 1 0.789997 0.930218 0.920472
1527 2 0.950674 0.867476 0.516808
1137 2 0.870202 0.607625 0.964502
1416 2 0.833414 0.664484 0.638464
1182 2 0.674616 0.960352 0.586491
1095 2 0.974344 0.577661 0.886156
321 2 0.836721 0.850865 0.617475
568 1 0.960853 0.774416 0.581597
319 1 0.828105 0.806253 0.616457
570 2 0.917765 0.767447 0.594261
68 2 0.75113 0.67309 0.706005
634 1 0.529156 0.953408 0.837653
458 2 0.791605 0.809743 0.696121
683 2 0.938963 0.867525 0.923442
950 2 0.655488 0.824449 0.504582
67 1 0.793922 0.684272 0.71646
69 2 0.791578 0.727921 0.7289
1153 1 0.753931 0.928349 0.797893
1094 2 0.942379 0.563765 0.823293
652 1 0.767376 0.767228 0.911576
725 2 0.622113 0.589997 0.648381
1290 2 0.62027 0.648451 0.739435
1514 2 0.921752 0.808066 0.778903
1515 2 0.853838 0.830861 0.773007
1498 1 0.630028 0.993291 0.759662
1336 1 0.692576 0.517189 0.798621
595 1 0.713727 0.629453 0.87482
1139 2 0.778954 0.917172 0.878361
1049 2 0.996907 0.686532 0.579331
1124 2 0.861366 0.75361 0.883072
726 2 0.677474 0.628774 0.623923
1154 2 0.74847 0.886693 0.78056
735 2 0.964922 0.883531 0.721884
307 1 0.913766 0.637706 0.771462
596 2 0.713125 0.598471 0.841575