LAMMPS (20 Nov 2019)
# LAMMPS input file
# Single PEG in water system
# author : Simon Gravelle
units real
atom_style full
bond_style harmonic
angle_style charmm
dihedral_style charmm
pair_style lj/cut/tip4p/long 1 2 1 1 0.1546 12.0
kspace_style pppm/tip4p 1.0e-5
special_bonds lj 0.0 0.0 0.5
read_data PEG_H2O.data
  orthogonal box = (-10.5152 -10.5152 -10.5152) to (10.5152 10.5152 10.5152)
  1 by 2 by 2 MPI processor grid
  reading atoms ...
  939 atoms
  reading velocities ...
  939 velocities
  scanning bonds ...
  4 = max bonds/atom
  scanning angles ...
  6 = max angles/atom
  scanning dihedrals ...
  6 = max dihedrals/atom
  reading bonds ...
  689 bonds
  reading angles ...
  601 angles
  reading dihedrals ...
  222 dihedrals
  4 = max # of 1-2 neighbors
  6 = max # of 1-3 neighbors
  12 = max # of 1-4 neighbors
  14 = max # of special neighbors
  special bonds CPU = 0.000646887 secs
  read_data CPU = 0.0127742 secs
include PARM.lammps
# Mass

mass 		1 15.9994 # H2O O
mass 		2 1.008 # H2O H
mass 		3 12.011 # CC32A
mass 		4 15.9994 # OC30A
mass 		5 1.008 # HCA2
mass 		6 15.9994 # OC311
mass 		7 1.008 # HCP1

# Pair Coeff

pair_coeff 	1 1 0.185199 3.1589
pair_coeff 	2 2 0.0 0.0
pair_coeff 	3 3 0.056 3.58141
pair_coeff 	4 4 0.100 2.93997
pair_coeff 	5 5 0.035 2.38761
pair_coeff 	6 6 0.192 3.14487
pair_coeff 	7 7 0.046 0.40001

# Bond coeff

bond_coeff 	1 0 0.9572
bond_coeff 	2 222.35 1.5300
bond_coeff 	3 308.79 1.1111
bond_coeff 	4 359.76 1.1415
bond_coeff 	5 427.715 1.1420
bond_coeff 	6 544.635 0.9600

# Angle coeff

angle_coeff 	1 0 104.52 0 0
angle_coeff	2 50.0000 109.0000 0.0000 0.0000
angle_coeff	3 26.5000 110.1000 22.5300 2.179
angle_coeff	4 45.0000 111.5000 0.0000 0.0000
angle_coeff	5 13.0258 109.4000 0.0000 0.0000
angle_coeff	6 35.5000 109.0000 5.4000 1.802
angle_coeff	7 55.0000 108.8900 0.0000 0.0000
angle_coeff	8 75.7000 110.1000 0.0000 0.0000
angle_coeff	9 95.0000 109.7000 0.0000 0.0000

# Dihedral coeff
# weighting factor put to 0, possibly wrong

dihedral_coeff	1 0.57 1 0 0
dihedral_coeff	2 0.29 2 0 0
dihedral_coeff	3 0.43 3 0 0
dihedral_coeff	4 0.59 1 180 0
dihedral_coeff	5 1.16 2 0 0
dihedral_coeff	6 0.12 1 0 0
dihedral_coeff	7 0.42 2 0 0
dihedral_coeff	8 0.29 3 0 0
dihedral_coeff	9 2.87 1 180 0
dihedral_coeff	10 0.03 2 0 0
dihedral_coeff	11 0.23 3 0 0
dihedral_coeff	12 1.36 1 180 0
dihedral_coeff	13 0.16 2 0 0
dihedral_coeff	14 1.01 3 0 0

group H2O type 1 2
741 atoms in group H2O
group PEG type 3 4 5 6 7
198 atoms in group PEG
delete_atoms overlap 1.5 H2O PEG mol yes
PPPM initialization ...
  extracting TIP4P info from pair style
  using 12-bit tables for long-range coulomb (src/kspace.cpp:323)
  G vector (1/distance) = 0.257116
  grid = 16 16 16
  stencil order = 5
  estimated absolute RMS force accuracy = 0.00281634
  estimated relative force accuracy = 8.48133e-06
  using double precision FFTW3
  3d grid and FFT values/proc = 5175 1024
Neighbor list info ...
  update every 1 steps, delay 10 steps, check yes
  max neighbors/atom: 2000, page size: 100000
  master list distance cutoff = 14.3092
  ghost atom cutoff = 14.3092
  binsize = 7.1546, bins = 3 3 3
  2 neighbor lists, perpetual/occasional/extra = 1 1 0
  (1) command delete_atoms, occasional
      attributes: full, newton on
      pair build: full/bin
      stencil: full/bin/3d
      bin: standard
  (2) pair lj/cut/tip4p/long, perpetual
      attributes: half, newton on
      pair build: half/bin/newton
      stencil: half/bin/3d/newton
      bin: standard
WARNING: Ignoring 'compress yes' for molecular system (src/delete_atoms.cpp:125)
Deleted 0 atoms, new total = 939
Deleted 0 bonds, new total = 689
Deleted 0 angles, new total = 601
Deleted 0 dihedrals, new total = 222
fix myshk H2O shake 1.0e-5 200 0 b 1 a 1
  0 = # of size 2 clusters
  0 = # of size 3 clusters
  0 = # of size 4 clusters
  247 = # of frozen angles
  find clusters CPU = 0.000236078 secs
fix mynpt all nvt temp 300 300 100
dump dp1 all xtc 1000 traj.xtc
thermo 5000
run 1000000
PPPM initialization ...
  extracting TIP4P info from pair style
  using 12-bit tables for long-range coulomb (src/kspace.cpp:323)
  G vector (1/distance) = 0.257116
  grid = 16 16 16
  stencil order = 5
  estimated absolute RMS force accuracy = 0.00281634
  estimated relative force accuracy = 8.48133e-06
  using double precision FFTW3
  3d grid and FFT values/proc = 5175 1024
Neighbor list info ...
  update every 1 steps, delay 10 steps, check yes
  max neighbors/atom: 2000, page size: 100000
  master list distance cutoff = 14.3092
  ghost atom cutoff = 14.3092
  binsize = 7.1546, bins = 3 3 3
  1 neighbor lists, perpetual/occasional/extra = 1 0 0
  (1) pair lj/cut/tip4p/long, perpetual
      attributes: half, newton on
      pair build: half/bin/newton
      stencil: half/bin/3d/newton
      bin: standard
Per MPI rank memory allocation (min/avg/max) = 13.42 | 13.46 | 13.61 Mbytes
Step Temp E_pair E_mol TotEng Press 
       0    287.16315   -2462.9318    263.39886   -1608.0516   -888.52288 
    5000     282.2408   -2463.7941    272.91261   -1609.5389    1782.1199 
   10000    296.23037   -2464.3203    292.44325   -1561.7196    -1840.508 
   15000    294.68714   -2497.7083    278.56392   -1612.1655   -1597.1101 
   20000    300.25192   -2427.2785    281.05355   -1527.7841   -1260.0672 
   25000    276.83902   -2492.5143    278.03586   -1644.2621    1421.6459 
   30000    305.17726   -2509.4748    283.93464   -1596.9544    120.36683 
   35000    305.94081   -2482.1301    295.68643   -1556.2852   -1232.1558 
   40000    292.96054   -2481.8932    286.74614   -1591.7246    30.072778 
   45000    283.84945   -2481.2223    276.48074   -1620.0856     761.1666 
   50000    301.75103    -2458.211    275.96862   -1560.7138   -1088.6795 
   55000    290.83883   -2506.2145     262.4541   -1644.7081    142.30444 
   60000    291.38908   -2489.0833    266.09355   -1622.8041   -1511.5734 
   65000    315.87754   -2479.8675    306.27779   -1522.9642   -13.595986 
   70000    291.64573   -2447.2786    295.22613   -1551.3382    892.31401 
   75000    302.20391   -2450.4535    271.19328   -1556.7988     714.0249 
   80000    287.30863    -2485.739    285.41475   -1608.5433   -1137.9369 
   85000    303.91203   -2459.1733    282.77692   -1550.4167    1429.6762 
   90000    310.56977   -2502.3378    306.52538   -1556.1195   -507.03449 
   95000    312.21257   -2451.5399    277.84655   -1530.6167    37.817322 
  100000    307.92904    -2464.566    293.49283   -1536.8195    1158.8292 
  105000    317.47446   -2436.8443    296.44815   -1486.4814    889.59352 
  110000    300.94582   -2487.8289    295.16628   -1572.7925    -41.96791 
  115000    298.24286   -2476.6682    291.95365   -1570.4118    624.74141 
  120000     307.5095   -2502.3344    284.10454   -1584.8403    495.64346 
  125000    313.98465   -2475.7545    296.87274   -1532.1551   -417.70864 
  130000     297.3123   -2483.4244    281.52554   -1589.5129     56.90138 
  135000    294.93258   -2494.9252    278.53101   -1608.9098    596.41169 
  140000    290.24828   -2490.6483    294.99446   -1597.8179   -437.59649 
  145000    300.29725   -2441.1266    282.02107   -1540.5714   -84.665278 
  150000    300.97838   -2503.8942    270.18088   -1613.7762    36.697159 
  155000     297.3316    -2431.492     283.8306   -1535.2356    940.37062 
  160000     287.8866   -2482.4202    287.39429   -1602.0544    -1017.188 
  165000    298.76143   -2449.3344    274.56753    -1559.396    1531.4055 
  170000    310.60941   -2454.1933     293.0629   -1521.3559   -1428.1158 
  175000    315.62154   -2482.5994     275.7404   -1556.7608   -152.43387 
  180000    298.69724   -2450.4507    292.34649   -1542.8657    593.67383 
  185000    296.86658   -2454.1909    258.84252   -1583.8804    1776.1947 
  190000    297.35506   -2469.0471    260.44864   -1596.1244    413.81377 
  195000    297.30072   -2457.9474    269.54689   -1576.0384     1313.663 
  200000    321.46182   -2524.4471    303.19793   -1559.1214    -594.1562 
  205000    305.13594   -2514.6599    291.43705   -1594.7222   -381.51199 
  210000    287.96423   -2457.4851    283.63565   -1580.7181   -633.13575 
  215000    290.30031   -2521.6978    260.31459   -1663.4401   -760.81486 
  220000    292.90388   -2457.7655    272.36118   -1582.0986    973.81294 
  225000    308.26909   -2489.0047    287.54057   -1566.5101   -976.64968 
  230000    301.28768   -2490.9574    301.24878   -1569.1344     610.2084 
  235000    300.97423    -2495.873    291.51049   -1584.4339    657.04345 
  240000    303.56949   -2454.3834    269.83396   -1559.2753    916.41269 
  245000    294.47765   -2481.2433    264.90629   -1609.7897   -1654.5665 
  250000    307.52895   -2483.1296    283.59376   -1566.1062    161.04427 
  255000    293.94671   -2510.5435    273.81562   -1631.2741   -378.74802 
  260000    298.67009   -2494.6866    286.20533   -1593.2987    -127.0854 
  265000    292.11441   -2482.0856    271.86534   -1608.5407    665.24966 
  270000    296.22526   -2485.6465     283.1515    -1592.348    223.56593 
  275000    304.89474   -2491.7855    284.62534   -1579.1564   -419.94811 
  280000    303.98287   -2505.7027    303.40142   -1576.1756   -685.54758 
  285000    299.60837   -2485.1579    266.50126   -1601.5414   -312.28673 
  290000    308.12123   -2424.1371    272.26414   -1517.2234    3103.4586 
  295000    283.21311   -2443.1881    289.07162   -1570.7712   -805.66882 
  300000     305.6501    -2484.243     306.6505   -1548.0328   -224.71614 
  305000    307.68125     -2461.72    278.56299   -1549.4137    22.285643 
  310000    300.34595   -2526.6101    278.87577   -1629.0999   -112.59259 
  315000    301.66385   -2455.8577    281.83545   -1552.6732   -1537.2078 
  320000    291.70936    -2488.633    288.51913   -1599.2685    114.44226 
  325000    299.54453    -2522.578    288.25857   -1617.3356    902.02753 
  330000    293.84629   -2502.7022    311.12725    -1586.328   -1532.2841 
  335000    286.27096   -2479.9438    282.41517    -1607.885    292.46432 
  340000    312.25937   -2506.6388    282.85712   -1580.6086   -2762.4294 
  345000    291.19983   -2478.3377     271.2529   -1607.2889     544.6763 
  350000    309.16716   -2448.6202    283.43399   -1528.3824   -307.67632 
  355000    286.08183   -2473.2655    285.60164   -1598.4097   -1156.9614 
  360000    294.79217   -2478.4955    285.26688   -1586.0335    1247.3876 
  365000    298.61968   -2447.4196    299.24953   -1533.0912    -684.2395 
  370000    299.70162   -2454.8225    275.54272   -1561.9725    499.87341 
  375000    311.73274   -2455.1142    300.66436   -1512.3615    435.75472 
  380000     304.3437   -2453.8281    270.66581   -1556.2934     632.4896 
  385000    292.56299   -2397.2608    268.38126   -1526.2759    1453.8913 
  390000    297.19613   -2508.8286    273.03296   -1623.6489    99.567943 
  395000    309.81685   -2442.4937    287.93748   -1516.4141   -454.03296 
  400000    298.26783   -2483.8508    278.96786   -1590.5288    424.04049 
  405000    298.25985   -2463.7858    296.87657   -1552.5716   -127.09896 
  410000    285.27226   -2433.2098    280.28693   -1565.3363   -104.72329 
  415000    307.57459   -2470.9464    277.54755   -1559.8753    1431.1305 
  420000    305.64618   -2474.2577    276.54301   -1568.1631   -1277.0276 
  425000    288.40137   -2463.4763    284.17671   -1585.2678    1073.0938 
  430000    301.37482   -2488.9367    285.96519   -1582.2178   -613.83194 
  435000    284.98719   -2504.8253    295.19041   -1622.6355   -1057.0746 
  440000    312.03309   -2495.6804    283.20922   -1569.7642    3.2868243 
  445000    294.44048   -2503.0172    284.58207   -1611.9644    393.21128 
  450000    304.39609   -2458.5556    285.84899   -1545.7299    493.53137 
  455000    298.23599   -2443.8073    279.18668   -1550.3321    634.95343 
  460000    313.49587   -2502.5921    260.28282   -1596.5894    620.03324 
  465000    315.47827   -2463.2567    292.63984   -1520.8137   -604.96392 
  470000    302.53092   -2481.6648    298.61781    -1559.912   -1999.5071 
  475000    285.59149   -2445.8371    279.31121   -1578.2817   -205.88202 
  480000    315.76232   -2452.9736    268.42576   -1534.1597   -202.53077 
  485000    309.02271   -2478.2266     280.9998   -1560.7205    190.84887 
  490000    29