LAMMPS data file via write_data, version 20 Nov 2019, timestep = 10000

912 atoms
7 atom types
629 bonds
6 bond types
400 angles
9 angle types
74 dihedrals
14 dihedral types

-1.0631249092432610e+01 1.0631249092432610e+01 xlo xhi
-1.0631249092432610e+01 1.0631249092432610e+01 ylo yhi
-1.0631249092432610e+01 1.0631249092432610e+01 zlo zhi

Masses

1 15.9994
2 1.008
3 12.011
4 15.9994
5 1.008
6 15.9994
7 1.008

Pair Coeffs # lj/cut/tip4p/long

1 0.185199 3.1589
2 0 0
3 0.056 3.58141
4 0.1 2.93997
5 0.035 2.38761
6 0.192 3.14487
7 0.046 0.40001

Bond Coeffs # harmonic

1 0 0.9572
2 222.35 1.53
3 308.79 1.1111
4 359.76 1.1415
5 427.715 1.142
6 544.635 0.96

Angle Coeffs # charmm

1 0 104.52 0 0
2 50 109 0 0
3 26.5 110.1 22.53 2.179
4 45 111.5 0 0
5 13.0258 109.4 0 0
6 35.5 109 5.4 1.802
7 55 108.89 0 0
8 75.7 110.1 0 0
9 95 109.7 0 0

Dihedral Coeffs # charmm

1 0.57 1 0 0
2 0.29 2 0 0
3 0.43 3 0 0
4 0.59 1 180 0
5 1.16 2 0 0
6 0.12 1 0 0
7 0.42 2 0 0
8 0.29 3 0 0
9 2.87 1 180 0
10 0.03 2 0 0
11 0.23 3 0 0
12 1.36 1 180 0
13 0.16 2 0 0
14 1.01 3 0 0

Atoms # full

1196 378 2 5.2700000000000002e-01 -9.5545949034834070e+00 -4.0253838517832303e+00 -5.1281643969445145e+00 0 0 0
336 91 2 5.2700000000000002e-01 3.9965116838246857e+00 -1.4709836318186298e+00 -8.5859402594714656e+00 -1 0 0
1195 378 1 -1.0540000000000000e+00 -9.8552052859161314e+00 -4.4398917399373845e+00 -5.9368907418874528e+00 0 0 0
436 125 1 -1.0540000000000000e+00 -7.3798140048859473e+00 -5.8610282838938765e-01 -6.3245435854217815e+00 0 0 0
409 116 1 -1.0540000000000000e+00 -4.0143834475320492e+00 -1.8246920781162039e+00 -3.1002847015479738e+00 0 0 0
438 125 2 5.2700000000000002e-01 -6.9050284034762317e+00 -1.2415513429823601e+00 -6.8356087382502011e+00 0 0 0
754 231 1 -1.0540000000000000e+00 -7.6463759325889136e-01 -5.5161817605938248e+00 -1.0269121303581066e+01 -1 0 1
1189 376 1 -1.0540000000000000e+00 -4.4087808978010834e+00 -8.7103215289889810e+00 -6.6375161821419022e+00 0 1 0
1191 376 2 5.2700000000000002e-01 -3.4941296615370847e+00 -8.7323500681753696e+00 -6.9188514890140764e+00 0 1 0
1190 376 2 5.2700000000000002e-01 -4.9047996180499407e+00 -8.5722034909446698e+00 -7.4444303915685826e+00 0 1 0
1175 371 2 5.2700000000000002e-01 -7.7088475630607824e+00 -2.0505951152652688e+00 -3.1213069818649561e+00 0 0 0
500 146 2 5.2700000000000002e-01 -1.9002931421785547e+00 -7.0758204199872221e+00 -1.0118817357160273e+01 0 0 1
275 71 2 5.2700000000000002e-01 -5.3688180764438078e+00 -2.1407426384965511e+00 -8.4687765422890511e+00 0 0 0
440 126 2 5.2700000000000002e-01 -5.3595556290524540e+00 -6.5027419954303411e-01 -5.7700500689050038e-01 1 0 0
359 99 2 5.2700000000000002e-01 -8.8801817793953752e-01 -2.3862311591066856e+00 -6.2194352020256609e+00 -1 0 0
276 71 2 5.2700000000000002e-01 -5.5740769265606867e+00 -3.2364025512680596e+00 -7.4444387323590391e+00 0 0 0
274 71 1 -1.0540000000000000e+00 -5.8847743943312301e+00 -2.3663249233081434e+00 -7.6947459217469829e+00 0 0 0
974 304 2 5.2700000000000002e-01 -6.8732631173368492e+00 -9.5183690940851502e+00 -7.0065597116117262e+00 1 1 0
411 116 2 5.2700000000000002e-01 -3.9664628415638576e+00 -1.4399859750057917e+00 -3.9754569807558795e+00 0 0 0
329 89 2 5.2700000000000002e-01 9.3056494677159112e+00 -3.7560479502277779e+00 -3.3175255423026844e+00 0 0 0
328 89 1 -1.0540000000000000e+00 1.0007118399120630e+01 -4.0233808047191335e+00 -2.7236432432404563e+00 0 0 0
1174 371 1 -1.0540000000000000e+00 -7.8254851387464992e+00 -1.4128763933319277e+00 -3.8255315240535879e+00 0 0 0
330 89 2 5.2700000000000002e-01 9.5613162304618999e+00 -4.5059601910245419e+00 -2.0275116005763820e+00 0 0 0
708 215 2 5.2700000000000002e-01 -2.6805615822576661e+00 -6.2017284925827418e+00 -2.5610611753832284e+00 1 0 0
437 125 2 5.2700000000000002e-01 -7.5508327225358371e+00 -1.0137708682934949e+00 -5.4854521926493529e+00 0 0 0
706 215 1 -1.0540000000000000e+00 -3.1436021824965668e+00 -7.0390906116580414e+00 -2.5357672021372792e+00 1 0 0
1000 313 1 -1.0540000000000000e+00 -1.7104715331933225e+00 -4.4926695539229593e+00 -2.5659424700509845e+00 0 0 0
707 215 2 5.2700000000000002e-01 -4.0706753161813971e+00 -6.8008803014710129e+00 -2.5393652120076275e+00 1 0 0
400 113 1 -1.0540000000000000e+00 -1.6334499005718452e+00 -9.3842395064110686e+00 -6.3361517336244297e+00 0 0 0
1001 313 2 5.2700000000000002e-01 -1.2232358603376898e+00 -4.1685577283232371e+00 -3.3234215967573224e+00 0 0 0
829 256 1 -1.0540000000000000e+00 -1.3947027824997758e+00 -8.8594900323829933e+00 -1.1021385892278630e+00 0 0 0
1002 313 2 5.2700000000000002e-01 -2.3560168771124044e+00 -3.8093357896442086e+00 -2.3855321550210142e+00 0 0 0
358 99 1 -1.0540000000000000e+00 -9.4620847366407013e-01 -3.2633655624172802e+00 -5.8406597717042450e+00 -1 0 0
392 110 2 5.2700000000000002e-01 -3.9601104979399144e+00 -4.6687531459133416e+00 -6.8781207327201059e+00 0 0 0
830 256 2 5.2700000000000002e-01 -1.2644358387683603e+00 -9.6906108426538875e+00 -1.5587461073396600e+00 0 0 0
831 256 2 5.2700000000000002e-01 -1.8717929781843949e+00 -8.3142197040124728e+00 -1.7276679028594160e+00 0 0 0
779 239 2 5.2700000000000002e-01 -5.6707130371398744e+00 -7.3052665175510070e+00 -7.4319866658580835e-01 0 0 0
391 110 1 -1.0540000000000000e+00 -3.4477971628707591e+00 -3.8864422994442380e+00 -7.0824402684922818e+00 0 0 0
218 52 2 5.2700000000000002e-01 7.3979629069301343e+00 -1.3852240938803106e-02 -7.8171703899003724e+00 0 0 0
1054 331 1 -1.0540000000000000e+00 -4.9681924461492670e+00 -5.8894480402488876e+00 -5.7206801916324617e+00 0 1 0
1166 368 2 5.2700000000000002e-01 -2.7095837545514128e+00 -9.6513854052085950e+00 -3.1713825086189313e+00 0 1 -1
393 110 2 5.2700000000000002e-01 -2.7670317203817882e+00 -3.8629875521237276e+00 -6.4099597911795847e+00 0 0 0
1055 331 2 5.2700000000000002e-01 -5.2943805204760661e+00 -5.9870464535105361e+00 -4.8260866657818182e+00 0 1 0
1056 331 2 5.2700000000000002e-01 -4.8702122951727524e+00 -6.7866122111405058e+00 -6.0396127924478238e+00 0 1 0
1034 324 2 5.2700000000000002e-01 -8.6184570629393029e+00 -8.1286838919480857e+00 -3.6594857436519979e+00 0 1 0
347 95 2 5.2700000000000002e-01 -7.0330165595734293e+00 -4.9953453809643475e+00 -2.3030043656102794e+00 1 0 0
833 257 2 5.2700000000000002e-01 -8.2804908804889266e+00 -6.2015371212350665e+00 -1.0150843633235565e+01 1 1 0
256 65 1 -1.0540000000000000e+00 -1.0016256209509628e+01 -6.7975854306003747e-01 -8.0923656930642807e-01 1 0 0
1033 324 1 -1.0540000000000000e+00 -7.7011267545406401e+00 -7.8556779759925064e+00 -3.6734344213560206e+00 0 1 0
1165 368 1 -1.0540000000000000e+00 -2.2457386670455026e+00 -1.0488016816964445e+01 -3.2048082235875048e+00 0 1 -1
1035 324 2 5.2700000000000002e-01 -7.2204858163318955e+00 -8.6120835214122433e+00 -3.3371954522137868e+00 0 1 0
122 20 2 5.2700000000000002e-01 5.1853253361003784e+00 -4.1415867145575369e+00 -9.3273873485482461e+00 0 0 0
659 199 2 5.2700000000000002e-01 -5.6583241347253175e+00 -7.7671332682610306e+00 -9.3833038600890486e+00 0 1 1
499 146 1 -1.0540000000000000e+00 -2.4874280437492597e+00 -7.8054600691899259e+00 -9.9210288499158352e+00 0 0 1
258 65 2 5.2700000000000002e-01 -1.0040823692218689e+01 -1.6107714684582088e+00 -5.8825449128996432e-01 1 0 0
1481 473 2 5.2700000000000002e-01 -9.2240912485109980e+00 -3.7014358307359014e+00 -1.9803368030330084e+00 0 0 0
501 146 2 5.2700000000000002e-01 -1.9600589712863279e+00 -8.5880632260918777e+00 -1.0081140778529765e+01 0 0 1
1152 363 2 5.2700000000000002e-01 -4.9031668190626387e+00 -1.4608809990439724e+00 -5.8038107668172429e+00 0 0 0
540 159 2 5.2700000000000002e-01 -7.9981211013282616e+00 -4.3792164219683789e+00 -8.9266451808647336e+00 0 0 0
1197 378 2 5.2700000000000002e-01 -9.3069504128659624e+00 -4.0562762108938806e+00 -6.6213447831745329e+00 0 0 0
396 111 2 5.2700000000000002e-01 9.2966399784050981e+00 -6.1361729829775165e+00 -4.6024565599687683e-01 -1 0 0
394 111 1 -1.0540000000000000e+00 8.8444119534820071e+00 -5.3113699122436966e+00 -2.8301292812630940e-01 -1 0 0
538 159 1 -1.0540000000000000e+00 -8.3259378952999654e+00 -3.6320451184514786e+00 -8.4261524950089477e+00 0 0 0
1050 329 2 5.2700000000000002e-01 -5.1680067661339644e+00 -4.4744953901603672e+00 -1.6185685144966016e+00 1 0 0
402 113 2 5.2700000000000002e-01 -1.7481062945454049e+00 -1.0104155221632366e+01 -5.7158317200022513e+00 0 0 0
1401 446 2 5.2700000000000002e-01 -1.6954482646719544e+00 -1.0083747336997975e+01 -8.0606715467275922e+00 0 1 1
410 116 2 5.2700000000000002e-01 -4.6824521386425877e+00 -1.3096051871732151e+00 -2.6479668717014526e+00 0 0 0
834 257 2 5.2700000000000002e-01 -6.8486887884783307e+00 -5.8633579747262550e+00 -1.0507841495002744e+01 1 1 0
346 95 1 -1.0540000000000000e+00 -6.3540317502583523e+00 -5.6293449041264063e+00 -2.5337551975001489e+00 1 0 0
1204 381 1 -1.0540000000000000e+00 8.3329509540033104e+00 -2.3653495937585518e+00 -4.5422976350700566e+00 0 1 0
1206 381 2 5.2700000000000002e-01 9.1618645299119148e+00 -1.8925536895411827e+00 -4.4675447713921281e+00 0 1 0
348 95 2 5.2700000000000002e-01 -6.8366509005535363e+00 -6.3963476989264967e+00 -2.8419875519707425e+00 1 0 0
1109 349 2 5.2700000000000002e-01 5.1345669011066342e+00 -9.7961043574851665e+00 -1.6567431957884970e-01 -1 0 0
1048 329 1 -1.0540000000000000e+00 -4.8158227820218391e+00 -3.7899385942788610e+00 -1.0497362663662884e+00 1 0 0
1110 349 2 5.2700000000000002e-01 3.7315351618417960e+00 -1.0307522993139106e+01 -4.1431614891976842e-01 -1 0 0
1150 363 1 -1.0540000000000000e+00 -4.4577750393412563e+00 -6.2279822751639102e-01 -5.6794518680349180e+00 0 0 0
242 60 2 5.2700000000000002e-01 -8.0600854209597621e+00 -7.6978349769064245e+00 -5.5657900871287520e+00 0 0 0
241 60 1 -1.0540000000000000e+00 -8.2434846895902005e+00 -7.0408759043889351e+00 -6.2373488621848052e+00 0 0 0
1399 446 1 -1.0540000000000000e+00 -1.4448405229543511e+00 -1.0437622447572902e+01 -8.9140119518775585e+00 0 1 1
243 60 2 5.2700000000000002e-01 -8.3516909020631402e+00 -6.2238299819480067e+00 -5.7505747034540819e+00 0 0 0
439 126 1 -1.0540000000000000e+00 -5.8662666127320806e+00 -1.1896418337856645e+00 -1.1840867287591017e+00 1 0 0
401 113 2 5.2700000000000002e-01 -1.1461424167078746e+00 -8.7212954661772688e+00 -5.8470113763109213e+00 0 0 0
441 126 2 5.2700000000000002e-01 -5.4896738432675649e+00 -2.0654848066966043e+00 -1.0986543275258249e+00 1 0 0
177 38 2 5.2700000000000002e-01 6.1488368227635153e+00 -1.9786570335051969e+00 -9.2413683426384754e+00 0 0 0
213 50 2 5.2700000000000002e-01 3.0293938278274144e+00 -6.2237359870932663e+00 -4.8274018112108124e+00 0 0 0
245 61 2 5.2700000000000002e-01 4.8844096442420799e+00 -1.0172957034257266e+01 -2.4941564759101951e+00 0 0 0
886 275 1 -1.0540000000000000e+00 -3.6028180866119204e+00 -2.6312997869636883e+00 -9.5432061002592352e+00 0 0 0
764 234 2 5.2700000000000002e-01 -9.3350356874942602e+00 -8.4714039935274208e+00 -9.8411386771829221e+00 0 0 1
462 133 2 5.2700000000000002e-01 -4.3290970149536712e-01 -5.4624034369727648e+00 -8.6420801210646019e+00 0 0 1
239 59 2 5.2700000000000002e-01 4.1178672763986803e+00 -1.0411812657595423e+01 -7.9344390902222992e+00 0 1 0
1480 473 1 -1.0540000000000000e+00 -8.2781485385055262e+00 -3.5551603937700538e+00 -1.9845269116298994e+00 0 0 0
637 192 1 -1.0540000000000000e+00 -1.0579926461725837e+01 -6.4356245210447476e+00 -8.2067374171881884e+00 0 0 1
46 1 5 8.9999999999999997e-02 -7.4554877865601199e-01 -1.4575799770355804e+00 -2.5864144862585494e+00 0 0 0
403 114 1 -1.0540000000000000e+00 1.0067735039808563e+01 -7.8364646935154987e+00 -6.4517374063582800e-01 0 0 -1
252 63 2 5.2700000000000002e-01 -7.8266378696331742e+00 -1.0252979793587190e+01 -4.4992667681647740e+00 1 0 0
639 192 2 5.2700000000000002e-01 -9.8962760457799384e+00 -6.4159680563334112e+00 -7.5370677742253411e+00 0 0 1
519 152 2 5.2700000000000002e-01 9.1847061248315018e+00 -3.6600650199915883e+00 -8.6290423218014833e+00 -1 0 0
517 152 1 -1.0540000000000000e+00 9.7155005285134610e+00 -3.1079360086662362e+00 -9.2031786579190094e+00 -1 0 0
638 192 2 5.2700000000000002e-01 -1.0194353010483052e+01 -6.9317575428610825e+00 -8.9288224482003056e+00 0 0 1
932 290 2 5.2700000000000002e-01 -8.9090765539020218e+00 -9.5941093320138346e+00 -7.5444861194751773e+00 1 1 0
518 152 2 5.2700000000000002e-01 1.0615850504230218e+01 -3.3903982615091257e+00 -9.0425340474506797e+00 -1 0 0
658 199 1 -1.0540000000000000e+00 -6.2756010669488962e+00 -8.0995066001324609e+00 -8.7315993064417494e+00 0 1 1
699 212 2 5.2700000000000002e-01 -5.2192127063131100e+00 -9.9234680325831430e+00 -2.0308793800269722e+00 0 0 0
719 219 2 5.2700000000000002e-01 8.4336149352857834e+00 -5.6082491778714596e+00 -7.2825538270641097e+00 -1 0 1
1108 349 1 -1.0540000000000000e+00 4.6000977049250587e+00 -1.0255702873690872e+01 -8.1323399806701424e-01 -1 0 0
888 275 2 5.2700000000000002e-01 -3.4611506407903345e+00 -3.2114723957560471e+00 -8.7951741406637218e+00 0 0 0
887 275 2 5.2700000000000002e-01 -3.5913541682714625e+00 -1.7502902040631234e+00 -9.1691574110546448e+00 0 0 0
238 59 1 -1.0540000000000000e+00 5.0678712154293848e+00 -1.0340749701750847e+01 -8.0275210776998804e+00 0 1 0
1444 461 1 -1.0540000000000000e+00 -6.3777135488610019e+00 -1.0293325922742120e+00 -1.0226071753837807e+01 1 0 0
1544 494 2 5.2700000000000002e-01 9.1546206227061351e+00 -5.8350865653326442e+00 -4.6376677187550159e+00 0 1 1
660 199 2 5.2700000000000002e-01 -6.9112924630522761e+00 -7.3925326019735671e+00 -8.6206673383721473e+00 0 1 1
404 114 2 5.2700000000000002e-01 -1.0393429755777248e+01 -7.5116273079261244e+00 -2.3460445261689955e-01 1 0 -1
497 145 2 5.2700000000000002e-01 8.9541494222614642e+00 -1.0308236383697325e+01 -2.2596384284717193e+00 0 0 0
1146 361 2 5.2700000000000002e-01 5.1578123974747481e+00 -8.1342090576948500e+00 -9.7233733153509441e+00 0 1 0
539 159 2 5.2700000000000002e-01 -7.5983671505040196e+00 -3.0101022885044539e+00 -8.4191088721526910e+00 0 0 0
464 134 2 5.2700000000000002e-01 -2.3817059098925775e-01 -1.0507663210995542e+01 -9.9549195314694412e+00 0 0 1
1545 494 2 5.2700000000000002e-01 1.0446390250700981e+01 -6.0889712758676211e+00 -5.3851592593304716e+00 0 1 1
1126 355 1 -1.0540000000000000e+00 -5.1596229959444173e-01 -8.6300195197446605e-01 -6.9907815340252215e+00 0 0 0
1032 323 2 5.2700000000000002e-01 -3.6433738420772919e+00 -3.6627392193388353e-01 -7.2300079290050192e+00 0 0 0
461 133 2 5.2700000000000002e-01 7.0724967844515696e-01 -5.2302798647105275e+00 -7.6735631924206391e+00 0 0 1
50 1 5 8.9999999999999997e-02 8.8368366834447265e-01 -3.0405557166720563e+00 -1.7564267046306217e+00 0 0 0
1286 408 2 5.2700000000000002e-01 5.9891116781985350e+00 -2.1791105035346590e+00 -6.4027009884839439e+00 0 1 0
1287 408 2 5.2700000000000002e-01 7.4701601464137770e+00 -2.3102314137114579e+00 -6.6876089985611582e+00 0 1 0
1482 473 2 5.2700000000000002e-01 -8.0848908841402487e+00 -3.2095519819621980e+00 -1.1130752881054811e+00 0 0 0
335 91 2 5.2700000000000002e-01 3.2849707488808111e+00 -2.7409672190656114e+00 -8.1703428769388360e+00 -1 0 0
1127 355 2 5.2700000000000002e-01 2.7526867543096856e-02 -1.0907472683419641e+00 -7.7450847035146460e+00 0 0 0
1128 355 2 5.2700000000000002e-01 4.3905310072018366e-02 -3.0450461175175114e-01 -6.4514758109960759e+00 0 0 0
334 91 1 -1.0540000000000000e+00 3.5183387818298257e+00 -1.8669899465305448e+00 -7.8574133925994900e+00 -1 0 0
1187 375 2 5.2700000000000002e-01 3.1789255877977709e+00 -6.6502093975278420e-01 -4.9483318681680002e+00 0 0 0
895 278 1 -1.0540000000000000e+00 1.0166255978549026e+01 -5.1320283528580646e-01 -3.5469768267519504e+00 -1 1 0
1144 361 1 -1.0540000000000000e+00 5.6977646011940077e+00 -7.7211540497102185e+00 -9.0495344084121800e+00 0 1 0
368 102 2 5.2700000000000002e-01 5.1445601865343153e+00 -6.3352374962512847e-01 -6.4328901953308621e+00 0 0 0
257 65 2 5.2700000000000002e-01 -9.3230839881146998e+00 -3.1995667420291518e-01 -2.5581397889562396e-01 1 0 0
1494 477 2 5.2700000000000002e-01 6.7214071915858487e+00 -1.4712588501968451e+00 -1.2040109761167397e+00 0 0 0
1445 461 2 5.2700000000000002e-01 -5.8011269374288137e+00 -2.6760372916098696e-01 -1.0285558894987116e+01 1 0 0
244 61 1 -1.0540000000000000e+00 5.0950297392647119e+00 -1.0185903280595115e+01 -3.4278016046605959e+00 0 0 0
360 99 2 5.2700000000000002e-01 -5.4823083670359374e-01 -3.8351323824712917e+00 -6.4971033708917796e+00 -1 0 0
212 50 2 5.2700000000000002e-01 3.0913205340710554e+00 -4.9680792744548148e+00 -3.9839795369025968e+00 0 0 0
378 105 2 5.2700000000000002e-01 6.3934812155578928e+00 -6.8080040676203248e+00 -2.3177021498436954e+00 0 0 0
1111 350 1 -1.0540000000000000e+00 2.5989179194073824e+00 -8.5355293879160108e+00 -7.2959570923416663e+00 -1 1 0
219 52 2 5.2700000000000002e-01 8.4833886314243028e+00 -8.5942413519295258e-01 -8.4486203075690050e+00 0 0 0
813 250 2 5.2700000000000002e-01 7.3768767261729717e+00 -8.0421349123204848e+00 -4.2373711659866435e+00 0 0 0
1423 454 1 -1.0540000000000000e+00 2.5771649192020707e+00 -4.5539958799840248e+00 -7.6127866595139864e+00 0 1 0
460 133 1 -1.0540000000000000e+00 -2.4632120234416099e-01 -5.3011306495936541e+00 -7.7172030856404765e+00 0 0 1
1113 350 2 5.2700000000000002e-01 2.3143842723619219e+00 -9.3812450751129361e+00 -6.9495075746350290e+00 -1 1 0
1145 361 2 5.2700000000000002e-01 5.5448853730055330e+00 -6.7828777803380369e+00 -9.1612807655571267e+00 0 1 0
121 20 1 -1.0540000000000000e+00 5.2036889261752890e+00 -4.9489554833586036e+00 -8.8135389893032272e+00 0 0 0
628 189 1 -1.0540000000000000e+00 2.7829835286168070e+00 -9.3845415246313397e+00 -1.0014936217914450e+01 -1 0 1
630 189 2 5.2700000000000002e-01 1.8847416561555139e+00 -9.6707780726259323e+00 -1.0180622330646138e+01 -1 0 1
973 304 1 -1.0540000000000000e+00 -7.5610915335639692e+00 -9.9230953199872882e+00 -6.4780614060233406e+00 1 1 0
158 32 2 5.2700000000000002e-01 4.8840726024640819e+00 -3.4195316982747785e+00 -1.8309625276281647e+00 -1 0 -1
1091 343 2 5.2700000000000002e-01 5.1048947449211308e+00 -2.8896913654415100e+00 -4.0870144706904838e+00 0 0 0
614 184 2 5.2700000000000002e-01 9.5404698182115943e-01 -5.3653730200830649e+00 -5.7992361590091690e-01 1 0 0
770 236 2 5.2700000000000002e-01 8.0223188759591455e+00 -9.3636131486298968e+00 -9.8116666727694195e+00 0 0 1
376 105 1 -1.0540000000000000e+00 6.3346508216208495e+00 -6.0693553485120013e+00 -1.7117659030403054e+00 0 0 0
812 250 2 5.2700000000000002e-01 6.0566840407689693e+00 -7.3310347962618279e+00 -4.4454522566651189e+00 0 0 0
1543 494 1 -1.0540000000000000e+00 9.8715634061643893e+00 -6.4641743705357575e+00 -4.7180622392323910e+00 0 1 1
240 59 2 5.2700000000000002e-01 5.2317578879037399e+00 -9.4008946849877564e+00 -8.1052089761364687e+00 0 1 0
769 236 1 -1.0540000000000000e+00 7.7957340197083891e+00 -9.8994813860685476e+00 -9.0515836312036555e+00 0 0 1
1205 381 2 5.2700000000000002e-01 7.7840492939832675e+00 -1.9984430008170904e+00 -3.8492549205156728e+00 0 1 0
48 1 3 -1.0000000000000000e-02 1.2864050314059927e+00 -1.9552034738288171e+00 -2.0114805292729834e+00 0 0 0
811 250 1 -1.0540000000000000e+00 6.5508435861140430e+00 -7.8361689988435561e+00 -3.7997995211297635e+00 0 0 0
1285 408 1 -1.0540000000000000e+00 6.6408726209371576e+00 -2.0569103397414406e+00 -7.0929882485282940e+00 0 1 0
698 212 2 5.2700000000000002e-01 -6.5329222805747866e+00 -9.9142008921980427e+00 -1.2785821948845708e+00 0 0 0
157 32 1 -1.0540000000000000e+00 4.8822258456304048e+00 -4.0304210538849317e+00 -2.5678699071812527e+00 -1 0 -1
839 259 2 5.2700000000000002e-01 4.0247432405540184e+00 -7.6084847039291654e+00 -6.4284907988410271e+00 0 1 0
51 1 4 -3.4000000000000002e-01 1.4640567557218844e+00 -1.5082876363179665e+00 -9.4461696253567951e-01 0 0 0
298 79 1 -1.0540000000000000e+00 9.4267178420841962e+00 -1.0212534101062147e+01 -6.9018989247012108e+00 0 0 0
840 259 2 5.2700000000000002e-01 5.3439375246710572e+00 -7.0840838446224996e+00 -6.9544185412855715e+00 0 1 0
1424 454 2 5.2700000000000002e-01 2.7617691123666646e+00 -4.7966908593860254e+00 -6.7054597325510734e+00 0 1 0
52 1 3 -1.0000000000000000e-02 2.4050753450884521e+00 -8.0218304787595862e-01 -7.6980401053141811e-01 0 0 0
615 184 2 5.2700000000000002e-01 -2.2525945626692589e-01 -5.5826271675376455e+00 -1.5039943770033997e+00 1 0 0
1156 365 1 -1.0540000000000000e+00 2.6070539979909491e+00 -7.9847216182085408e+00 -4.3818027624361315e+00 0 1 0
1188 375 2 5.2700000000000002e-01 1.9895670410188302e+00 -9.6458220017620278e-02 -4.2039982757755396e+00 0 0 0
613 184 1 -1.0540000000000000e+00 6.5705338886173337e-01 -5.9019490928977545e+00 -1.3148403609312709e+00 1 0 0
771 236 2 5.2700000000000002e-01 6.8873807609028734e+00 -1.0160096893819725e+01 -9.2038846803675085e+00 0 0 1
1208 382 2 5.2700000000000002e-01 7.5829437812057261e+00 -4.0821098992068885e+00 -4.6064504928180039e+00 -1 1 0
896 278 2 5.2700000000000002e-01 1.0530749836551960e+01 -8.7097823527217066e-01 -2.7374320930873504e+00 -1 1 0
776 238 2 5.2700000000000002e-01 -4.7572412041623791e+00 -1.0372448138514542e+01 -6.4637438268729603e+00 0 0 1
1090 343 1 -1.0540000000000000e+00 4.8606662458941177e+00 -2.5104154283923990e+00 -4.9312442472988582e+00 0 0 0
930 289 2 5.2700000000000002e-01 1.8142286499866067e-01 -6.8442905621116203e+00 -6.1931359726292712e+00 0 1 0
49 1 5 8.9999999999999997e-02 2.2387329967301959e+00 -2.0903433357962609e+00 -2.6205786609991666e+00 0 0 0
1157 365 2 5.2700000000000002e-01 3.2994798342588201e+00 -8.6002485376023756e+00 -4.6224160957353044e+00 0 1 0
54 1 5 8.9999999999999997e-02 3.4500511482239258e+00 -1.2284521221805615e+00 -8.1211743863534736e-01 0 0 0
47 1 5 8.9999999999999997e-02 4.9824144946409810e-01 -1.6207778399919714e+00 -4.0133394974603505e+00 0 0 0
1092 343 2 5.2700000000000002e-01 4.3335148753763271e+00 -3.1876718112893281e+00 -5.3551038148461325e+00 0 0 0
153 30 2 5.2700000000000002e-01 9.4474849940029291e+00 -8.1644419967782973e+00 -4.3421875295555878e+00 -1 0 0
1158 365 2 5.2700000000000002e-01 2.5601927838122975e+00 -8.0373966777018708e+00 -3.4272080690841218e+00 0 1 0
1209 382 2 5.2700000000000002e-01 6.7168314832046025e+00 -4.7768095041304006e+00 -3.5773189239003189e+00 -1 1 0
123 20 2 5.2700000000000002e-01 6.1005161730334247e+00 -5.0029463708531150e+00 -8.4833760503008193e+00 0 0 0
325 88 1 -1.0540000000000000e+00 3.0601289038810151e+00 -7.6000705798752897e+00 -1.4134439634011891e+00 -1 0 0
326 88 2 5.2700000000000002e-01 2.2752527287881783e+00 -7.1002091210613258e+00 -1.6377865999519159e+00 -1 0 0
929 289 2 5.2700000000000002e-01 9.5943567847441891e-01 -7.5584920033612395e+00 -5.1084783405251741e+00 0 1 0
1493 477 2 5.2700000000000002e-01 6.5402347391699234e+00 -2.0330566507880121e-01 -2.0110679703090462e+00 0 0 0
377 105 2 5.2700000000000002e-01 7.2252718119691988e+00 -5.7210170448802131e+00 -1.6708224459378762e+00 0 0 0
1207 382 1 -1.0540000000000000e+00 7.3074489933683520e+00 -4.9497019575414125e+00 -4.3104634242582627e+00 -1 1 0
152 30 2 5.2700000000000002e-01 9.3276459204418654e+00 -9.3399057509261745e+00 -5.2886511608889721e+00 -1 0 0
1425 454 2 5.2700000000000002e-01 3.4046413464491412e+00 -4.6963452652591098e+00 -8.0723964117034264e+00 0 1 0
718 219 1 -1.0540000000000000e+00 7.6783273818304369e+00 -5.0786632929381241e+00 -7.5380947802264000e+00 -1 0 1
45 1 3 -1.0000000000000000e-02 2.9890206919298024e-01 -1.2363099009904648e+00 -2.9375201653575926e+00 0 0 0
299 79 2 5.2700000000000002e-01 8.7864995803519133e+00 -9.9896085871131053e+00 -7.5776551844283055e+00 0 0 0
151 30 1 -1.0540000000000000e+00 9.1146856261904663e+00 -9.0601598884521302e+00 -4.3983636356791251e+00 -1 0 0
838 259 1 -1.0540000000000000e+00 4.8665441161096350e+00 -7.2539271124569966e+00 -6.1423406560723972e+00 0 1 0
1049 329 2 5.2700000000000002e-01 -4.1830009857544717e+00 -4.2429779222113613e+00 -4.9249876246976498e-01 1 0 0
1492 477 1 -1.0540000000000000e+00 6.9540896807031860e+00 -1.0659444043404651e+00 -2.0393556487217239e+00 0 0 0
931 290 1 -1.0540000000000000e+00 -9.5899994878823200e+00 -9.5996599588534419e+00 -8.2171932347924148e+00 1 1 0
933 290 2 5.2700000000000002e-01 -1.0411943822598152e+01 -9.6025772120958006e+00 -7.7266621792381081e+00 1 1 0
1112 350 2 5.2700000000000002e-01 2.5889557414818771e+00 -8.6498470341257541e+00 -8.2462485733887423e+00 -1 1 0
327 88 2 5.2700000000000002e-01 2.7339265441355192e+00 -8.3456905640895869e+00 -9.0959422699814674e-01 -1 0 0
159 32 2 5.2700000000000002e-01 5.2122367540779333e+00 -4.8504497378418057e+00 -2.2006268214414675e+00 -1 0 -1
1176 371 2 5.2700000000000002e-01 -7.3612148975084368e+00 -6.3272738430067577e-01 -3.5221466837331787e+00 0 0 0
720 219 2 5.2700000000000002e-01 7.4518094547965905e+00 -4.5870328517542847e+00 -6.7486577404779435e+00 -1 0 1
246 61 2 5.2700000000000002e-01 5.5515775065295134e+00 -9.3589140630848071e+00 -3.5823158012057643e+00 0 0 0
928 289 1 -1.0540000000000000e+00 7.6089030435030125e-02 -7.4525574092034494e+00 -5.4616047580018643e+00 0 1 0
211 50 1 -1.0540000000000000e+00 3.0600964948169462e+00 -5.2692194359862832e+00 -4.8920331498483298e+00 0 0 0
175 38 1 -1.0540000000000000e+00 5.7479229398858838e+00 -2.0133434366863252e+00 -1.0109865090051388e+01 0 0 0
405 114 2 5.2700000000000002e-01 9.7550550304311461e+00 -8.5205480202713009e+00 -5.3157784265540187e-02 0 0 -1
697 212 1 -1.0540000000000000e+00 -6.0710578263381203e+00 -9.4879668554013570e+00 -2.0005430338459416e+00 0 0 0
1446 461 2 5.2700000000000002e-01 -7.1728766300122837e+00 -6.9650855714555249e-01 -9.8099401227188832e+00 1 0 0
832 257 1 -1.0540000000000000e+00 -7.5629044030394805e+00 -5.6105012178538187e+00 -9.9228789452064543e+00 1 1 0
763 234 1 -1.0540000000000000e+00 -9.3751301285629740e+00 -7.6737285341280757e+00 -1.0368706647782927e+01 0 0 1
1030 323 1 -1.0540000000000000e+00 -3.2281153107690130e+00 -2.5057321226681317e-01 -8.0846396769026185e+00 0 0 0
1031 323 2 5.2700000000000002e-01 -2.2954484236613624e+00 -1.6224420896400993e-01 -7.8882926385317207e+00 0 0 0
1068 335 2 5.2700000000000002e-01 1.5023493852111294e+00 -1.8870038040601500e-01 -9.7335440983263055e+00 0 0 0
44 1 4 -3.4000000000000002e-01 4.7679083735926930e-01 -9.3287761976469596e-02 -3.2113128375640603e+00 0 0 0
602 180 2 5.2700000000000002e-01 -1.9838823498143388e+00 -2.7092127358970712e+00 -1.0549547514595178e+01 0 0 1
498 145 2 5.2700000000000002e-01 7.7170235537480831e+00 -1.0395095659446358e+01 -1.3913960241596186e+00 0 0 0
1186 375 1 -1.0540000000000000e+00 2.4241752916985959e+00 -8.6390847264464554e-02 -5.0567795989077586e+00 0 0 0
755 231 2 5.2700000000000002e-01 -1.1990332686409708e+00 -4.6916466634463552e+00 -1.0487442088736922e+01 -1 0 1
11 1 5 8.9999999999999997e-02 -3.5862531671849327e+00 -2.1867287692651054e+00 3.6722246554398588e+00 0 0 0
690 209 2 5.2700000000000002e-01 -5.3281898552839451e+00 -8.0566985631227013e+00 4.9918107895324120e+00 1 0 0
9 1 4 -3.4000000000000002e-01 -2.0074285594281722e+00 -1.7323755817156652e+00 4.1635832020384296e+00 0 0 0
406 115 1 -1.0540000000000000e+00 -4.2851407745974655e+00 -5.3679245903430743e+00 7.8360075397557356e+00 0 0 -1
1428 455 2 5.2700000000000002e-01 -8.4022240816267857e+00 -6.3200370709036502e+00 1.8675638792483067e+00 0 0 0
407 115 2 5.2700000000000002e-01 -5.0154982588643620e+00 -5.4445262424466287e+00 7.2220597857226263e+00 0 0 -1
408 115 2 5.2700000000000002e-01 -4.3802761891180042e+00 -4.4938056792659946e+00 8.2142760653650786e+00 0 0 -1
1470 469 2 5.2700000000000002e-01 -3.4309363184751840e+00 -6.1654174559319754e+00 4.0521893969915599e+00 0 0 0
1426 455 1 -1.0540000000000000e+00 -7.5437766356119269e+00 -5.9770002580659067e+00 1.6193394055138928e+00 0 0 0
1183 374 1 -1.0540000000000000e+00 -8.7476021355216549e+00 -3.4930810711022477e+00 3.7312497739058763e+00 1 1 -1
1185 374 2 5.2700000000000002e-01 -8.0249292415387465e+00 -3.1428570197834045e+00 4.2521227836175690e+00 1 1 -1
1427 455 2 5.2700000000000002e-01 -7.6954325835897155e+00 -5.0461457123569744e+00 1.4558402068533915e+00 0 0 0
1136 358 2 5.2700000000000002e-01 8.1989332715362711e+00 -6.5038853114171147e-01 1.0088387200482719e+01 -1 1 -1
1468 469 1 -1.0540000000000000e+00 -2.9663729596314736e+00 -5.3888469610021437e+00 3.7401944582332369e+00 0 0 0
801 246 2 5.2700000000000002e-01 7.0456904645241547e+00 -2.1608931374908504e+00 1.1402370061284071e+00 0 0 0
689 209 2 5.2700000000000002e-01 -4.9824457600035581e+00 -8.0907737829126827e+00 3.5183218435739931e+00 1 0 0
106 15 1 -1.0540000000000000e+00 1.8143510488223491e+00 -9.3217352269532245e+00 5.8729085396200329e+00 0 0 -1
1105 348 1 -1.0540000000000000e+00 1.0456027347773544e+01 -3.1617669806170436e+00 4.1433233572589678e-01 0 0 0
1552 497 1 -1.0540000000000000e+00 -8.8448428213365293e+00 -9.0599371731802645e+00 8.1644915081686324e+00 1 1 0
129 22 2 5.2700000000000002e-01 -8.3716263096556531e+00 -2.0293366603629472e+00 8.7207113624759689e+00 0 0 -1
16 1 4 -3.4000000000000002e-01 -2.0702686654910600e+00 -6.2217010861367328e-02 1.8172054383012561e+00 0 0 0
1469 469 2 5.2700000000000002e-01 -2.5318065404559036e+00 -5.0402873475338774e+00 4.5185773487018590e+00 0 0 0
1422 453 2 5.2700000000000002e-01 -1.0454436646758083e+00 -8.8205352959793633e+00 4.5382593797604738e+00 0 1 0
386 108 2 5.2700000000000002e-01 -7.3420101309128132e+00 -2.4471043453987704e+00 1.1188129426487237e+00 0 0 -1
13 1 3 -1.0000000000000000e-02 -2.6225693750908050e+00 -1.0324184102309175e+00 1.9694770958442369e+00 0 0 0
8 1 5 8.9999999999999997e-02 -2.7271727483658159e+00 -1.2252807718963901e+00 5.9750308047336151e+00 0 0 0
196 45 1 -1.0540000000000000e+00 -3.3354114348685142e+00 -5.4988451519631676e+00 1.0119864332121278e+00 1 0 0
200 46 2 5.2700000000000002e-01 -8.9288384892170534e+00 -9.8085227978885055e+00 3.2290589510145598e+00 0 0 -1
10 1 3 -1.0000000000000000e-02 -2.9047222476581593e+00 -1.2953926627662593e+00 3.5299009400306982e+00 0 0 0
713 217 2 5.2700000000000002e-01 -3.0522634490514591e+00 -6.9669364252100863e+00 7.2433956738554333e+00 0 0 0
199 46 1 -1.0540000000000000e+00 -8.5033159731328531e+00 -9.0953578624280365e+00 3.7050296073679529e+00 0 0 -1