LAMMPS data file via write_data, version 20 Nov 2019, timestep = 20000

66 atoms
7 atom types
65 bonds
6 bond types
118 angles
9 angle types
74 dihedrals
14 dihedral types

-1.0500000000000000e+01 1.0500000000000000e+01 xlo xhi
-1.0500000000000000e+01 1.0500000000000000e+01 ylo yhi
-1.0500000000000000e+01 1.0500000000000000e+01 zlo zhi

Masses

1 15.9994
2 1.008
3 12.011
4 15.9994
5 1.008
6 15.9994
7 1.008

Pair Coeffs # lj/cut/tip4p/long

1 0.185199 3.1589
2 0 0
3 0.056 3.58141
4 0.1 2.93997
5 0.035 2.38761
6 0.192 3.14487
7 0.046 0.40001

Bond Coeffs # harmonic

1 0 0.9572
2 222.35 1.53
3 308.79 1.1111
4 359.76 1.1415
5 427.715 1.142
6 544.635 0.96

Angle Coeffs # charmm

1 0 104.52 0 0
2 50 109 0 0
3 26.5 110.1 22.53 2.179
4 45 111.5 0 0
5 13.0258 109.4 0 0
6 35.5 109 5.4 1.802
7 55 108.89 0 0
8 75.7 110.1 0 0
9 95 109.7 0 0

Dihedral Coeffs # charmm

1 0.57 1 0 0
2 0.29 2 0 0
3 0.43 3 0 0
4 0.59 1 180 0
5 1.16 2 0 0
6 0.12 1 0 0
7 0.42 2 0 0
8 0.29 3 0 0
9 2.87 1 180 0
10 0.03 2 0 0
11 0.23 3 0 0
12 1.36 1 180 0
13 0.16 2 0 0
14 1.01 3 0 0

Atoms # full

47 1 5 8.9999999999999997e-02 6.6026721809984212e-01 -1.2381759305659930e+00 -4.8691159439719867e+00 0 0 0
50 1 5 8.9999999999999997e-02 2.2998253074175024e+00 -2.4597988411315961e+00 -3.8622980919356484e+00 0 0 0
48 1 3 -1.0000000000000000e-02 2.4631999188640830e+00 -1.3678039110691447e+00 -3.7537526699192130e+00 0 0 0
49 1 5 8.9999999999999997e-02 3.0623396211328977e+00 -9.1080393359748291e-01 -4.6033583224464598e+00 0 0 0
54 1 5 8.9999999999999997e-02 4.6291521260337447e+00 -5.5239163857999174e-01 -2.6173486239258219e+00 0 0 0
56 1 5 8.9999999999999997e-02 3.8563155628306665e+00 1.2402550182951169e+00 -9.5006795510427211e-01 0 0 0
52 1 3 -1.0000000000000000e-02 3.5244564371079110e+00 -2.3763123922881785e-01 -2.4831338793356297e+00 0 0 0
53 1 5 8.9999999999999997e-02 3.2916154235344739e+00 7.3949589171158392e-01 -3.1014815901491151e+00 0 0 0
55 1 3 -1.0000000000000000e-02 3.3046189547565792e+00 2.0875399660268804e-01 -1.0240904335055381e+00 0 0 0
59 1 3 -1.0000000000000000e-02 3.5610226374321639e+00 -1.9929779442751347e-01 9.7468250647070309e-01 0 0 0
58 1 4 -3.4000000000000002e-01 3.8937226364760473e+00 -3.8254157862669314e-01 -1.0184338820203588e-01 0 0 0
60 1 5 8.9999999999999997e-02 3.9984335766981287e+00 8.0793044706697836e-01 1.2908841104618716e+00 0 0 0
51 1 4 -3.4000000000000002e-01 2.8722587746607706e+00 -1.2666059189557246e+00 -2.6629545656179214e+00 0 0 0
45 1 3 -1.0000000000000000e-02 9.7859620767713218e-01 -8.4348204357262946e-01 -3.8726009040406582e+00 0 0 0
66 1 7 4.1999999999999998e-01 3.7355784625926898e+00 -2.1174153139692491e+00 6.9186965536723777e-01 0 0 0
42 1 5 8.9999999999999997e-02 -9.8011666978173506e-01 4.3266669171680505e-01 -3.5707056133796033e+00 0 0 0
41 1 3 -1.0000000000000000e-02 5.0158507451899589e-03 8.3808355069253693e-01 -4.0469913834753246e+00 0 0 0
43 1 5 8.9999999999999997e-02 -8.2541823615343984e-02 6.8351270165166145e-01 -5.1451861142147051e+00 0 0 0
46 1 5 8.9999999999999997e-02 4.3286498700367776e-01 -1.4908093779963894e+00 -3.1598225894751986e+00 0 0 0
40 1 5 8.9999999999999997e-02 -9.5607576639319658e-01 2.9196510574273025e+00 -4.2248345273246377e+00 0 0 0
33 1 5 8.9999999999999997e-02 -9.8429767464933915e-01 3.4029139566287721e+00 -4.0360952811630152e-01 0 0 0
57 1 5 8.9999999999999997e-02 2.1822269533373819e+00 3.9324032684622817e-01 -7.7424639362005843e-01 0 0 0
44 1 4 -3.4000000000000002e-01 9.5620915392962313e-01 2.5994467649799302e-01 -3.5836215788263890e+00 0 0 0
38 1 3 -1.0000000000000000e-02 -1.3960500367778015e-03 2.4114480775079552e+00 -3.7856388261256568e+00 0 0 0
39 1 5 8.9999999999999997e-02 8.7383187622785907e-01 2.8949105649815996e+00 -4.2945783989815327e+00 0 0 0
37 1 4 -3.4000000000000002e-01 -1.3289784715626191e-01 2.4085364830175493e+00 -2.5893840614200565e+00 0 0 0
36 1 5 8.9999999999999997e-02 7.5631994064686014e-02 4.3143126574642281e+00 -2.4030146837608681e+00 0 0 0
34 1 3 -1.0000000000000000e-02 4.8562083091642455e-01 3.2141119416641204e+00 -2.0388294037563934e+00 0 0 0
35 1 5 8.9999999999999997e-02 1.6105951028194565e+00 3.0718017038143479e+00 -2.1446489614974840e+00 0 0 0
8 1 5 8.9999999999999997e-02 -3.6172628736326353e+00 -4.4745983989803928e-01 5.8317143889391048e+00 0 0 0
6 1 3 -1.0000000000000000e-02 -3.6547883801231711e+00 -1.0166514598590779e+00 4.8177642204650901e+00 0 0 0
7 1 5 8.9999999999999997e-02 -4.3322317293852901e+00 -1.8671362822064810e+00 5.0445608270851574e+00 0 0 0
12 1 5 8.9999999999999997e-02 -5.6347991787277332e+00 1.9588911319407862e-01 3.4373309178503004e+00 0 0 0
11 1 5 8.9999999999999997e-02 -5.2283728426062641e+00 -1.5699548091591680e+00 3.0396590943874044e+00 0 0 0
16 1 4 -3.4000000000000002e-01 -3.4167118859566603e+00 -9.0438655892645325e-01 1.4299737226790750e+00 0 0 0
13 1 3 -1.0000000000000000e-02 -4.2866791277721976e+00 -1.7137287119751010e-01 1.7596496458879451e+00 0 0 0
9 1 4 -3.4000000000000002e-01 -3.8449192862419066e+00 -2.5439761594378113e-01 3.9748006557619919e+00 0 0 0
10 1 3 -1.0000000000000000e-02 -4.7290477172801912e+00 -5.0933422153126273e-01 3.2124303075922662e+00 0 0 0
14 1 5 8.9999999999999997e-02 -4.0361568090945079e+00 9.3044897521804937e-01 1.8686904682742329e+00 0 0 0
15 1 5 8.9999999999999997e-02 -5.2722067032933317e+00 -3.3488057469594920e-02 1.0884389763656583e+00 0 0 0
21 1 5 8.9999999999999997e-02 -1.2609862794376900e+00 -1.7833452436706696e+00 6.3597887890291882e-01 0 0 0
19 1 5 8.9999999999999997e-02 -3.7103630750549814e+00 -2.1628757237887686e+00 7.6296283565040410e-02 0 0 0
17 1 3 -1.0000000000000000e-02 -3.3383200410325480e+00 -1.1386117586839326e+00 2.2185264628224555e-01 0 0 0
18 1 5 8.9999999999999997e-02 -3.8792727826010758e+00 -3.8428732792662451e-01 -4.6699930592825234e-01 0 0 0
20 1 3 -1.0000000000000000e-02 -1.7937169784415212e+00 -1.0538147714741084e+00 -1.0130311626082463e-02 0 0 0
63 1 5 8.9999999999999997e-02 5.3527317821389877e+00 -9.6377134314603008e-01 2.0190732684553385e+00 0 0 0
61 1 5 8.9999999999999997e-02 2.4119204675533017e+00 -2.9810856324380752e-01 1.3023282000583007e+00 0 0 0
64 1 5 8.9999999999999997e-02 3.6343875797491552e+00 -1.1812838731842257e+00 2.9309781146527776e+00 0 0 0
62 1 3 5.0000000000000003e-02 4.2406484240379063e+00 -1.2049608585910419e+00 1.9402736882545446e+00 0 0 0
65 1 6 -6.5000000000000002e-01 4.1191553433652190e+00 -2.2372027368505769e+00 1.5561563682689896e+00 0 0 0
22 1 5 8.9999999999999997e-02 -1.7857920361972275e+00 -1.4743947178698855e+00 -1.1416037490058661e+00 0 0 0
2 1 5 8.9999999999999997e-02 -1.5202287675535924e+00 -6.5871206778925195e-01 4.9366461882447865e+00 0 0 0
1 1 3 5.0000000000000003e-02 -2.1827718830059317e+00 -1.5631568211272184e+00 4.6923778991424987e+00 0 0 0
3 1 5 8.9999999999999997e-02 -2.1079940352210302e+00 -2.4564554363547755e+00 5.4046623356370418e+00 0 0 0
5 1 7 4.1999999999999998e-01 -2.2004921978044698e+00 -1.3153620562812296e+00 2.9981769442371280e+00 0 0 0
4 1 6 -6.5000000000000002e-01 -1.9536696860341387e+00 -2.0024047571493067e+00 3.6496693965673574e+00 0 0 0
29 1 5 8.9999999999999997e-02 -8.6120055457056033e-01 2.3237982493800970e+00 1.3459941113891094e+00 0 0 0
27 1 3 -1.0000000000000000e-02 -5.2282630266941368e-03 1.7326223593309753e+00 8.2634228211442762e-01 0 0 0
28 1 5 8.9999999999999997e-02 9.1737437309732928e-01 1.6021905663552816e+00 1.4895826623529302e+00 0 0 0
24 1 3 -1.0000000000000000e-02 -5.2261572301525905e-01 3.0522842848948156e-01 8.1737153661599327e-01 0 0 0
25 1 5 8.9999999999999997e-02 -7.4980375367224317e-01 -5.8720918830729503e-02 1.8501801062209635e+00 0 0 0
23 1 4 -3.4000000000000002e-01 -1.3539642673804659e+00 7.1480358974805439e-02 2.4030179285033731e-02 0 0 0
26 1 5 8.9999999999999997e-02 3.8427839700923300e-01 -2.9037554893399387e-01 4.3085582333550709e-01 0 0 0
30 1 4 -3.4000000000000002e-01 5.4233014638251531e-01 2.1235282192152978e+00 -1.4915501095293290e-01 0 0 0
32 1 5 8.9999999999999997e-02 7.6110261961221037e-01 3.9799165293023737e+00 -3.7870354411318079e-02 0 0 0
31 1 3 -1.0000000000000000e-02 1.4072617649774008e-01 3.1712254467273073e+00 -5.3918770109847514e-01 0 0 0

Velocities

47 -2.3096508610528862e-02 2.8023520100425924e-02 -6.6279218725119743e-03
50 1.0419992441036837e-02 1.5600355762297732e-02 -1.3154974722738928e-02
48 5.0375107018823155e-03 -5.4448616591307323e-03 2.1571767657634494e-03
49 7.9167161206352941e-03 2.7561671620289063e-02 1.9535897432110066e-03
54 -1.4183745326866851e-02 -2.2466343460571601e-02 9.0304158538092490e-03
56 -2.4836168880532042e-02 4.8232399182575349e-05 -1.8337737992656759e-02
52 7.1896062022093468e-03 1.6348882810137909e-03 -1.4161670037836872e-02
53 -8.7980702834673241e-03 2.3547173166428214e-03 1.2410519947383325e-02
55 -7.5560438974271640e-04 7.3345847032148708e-03 3.1928127083538020e-03
59 -3.4571961078815861e-03 -4.3832020079787332e-03 -2.1548965338449720e-03
58 2.3688932052756545e-03 -1.3260030645769400e-03 1.1593407303080732e-03
60 1.7308854603115948e-02 -7.4540802182255558e-03 8.1508947274739115e-03
51 -9.6073201026485307e-05 6.5839219492075940e-03 -1.0890974015631055e-03
45 1.1490528498458192e-03 5.7881176106936881e-03 -2.3590554406515557e-03
66 -1.5013287612012984e-02 -1.8371622662256268e-02 5.1287368976806851e-03
42 -1.1043849128123340e-02 -6.6664221830858711e-03 1.6519249854966882e-02
41 1.3942306539150076e-03 6.0644360740103025e-03 1.0044367496541091e-02
43 6.6433725411696662e-03 3.2546231576989067e-05 -4.4570078383886561e-03
46 1.2928557726566146e-03 1.9062129161755550e-02 1.9999002850860591e-03
40 9.6572193460926544e-03 1.7272324190144163e-02 -1.4282216943608891e-02
33 4.7391462221780664e-03 1.0843643898574029e-02 5.0481542298007340e-03
57 6.4312642302923170e-04 1.1444401656283307e-02 7.2063981667519952e-03
44 -1.3455449766892349e-04 -6.3467111248419559e-03 4.0413453151965867e-03
38 3.5453748855967665e-03 -4.7597607935066840e-03 2.1110388236693384e-03
39 -1.2528517401893109e-02 -1.1387769113117811e-02 3.7179474930470399e-03
37 1.0800663532206122e-03 -6.5688301105436726e-03 2.0417846111354708e-03
36 -1.3156262433463699e-02 -1.0050271573695849e-02 -4.0505776141864383e-03
34 1.1565116765745219e-03 -6.3184613186197452e-03 -3.1584112649310800e-03
35 3.8915693191921190e-03 7.2325486452335707e-03 3.2761851069931430e-02
8 7.8337408647624323e-03 7.8097628422625345e-03 -2.2004254768136580e-02
6 8.8961638445168127e-03 -7.8746655615463473e-04 2.3431751525518144e-03
7 -1.4492651982600249e-03 2.1314305189758416e-02 -8.5652424225943890e-03
12 -1.2461511612147994e-02 -6.8042433872933829e-03 -1.3139512657237130e-02
11 2.9429923719478387e-02 -1.4131973037333481e-02 -2.1870993172344803e-02
16 -6.7889720152304696e-03 -3.6641825320102767e-03 -5.4146419938256611e-03
13 3.7226760508792759e-03 7.4421887274370201e-03 -4.0970155517696082e-03
9 1.3089363853025816e-04 3.1349971893453324e-03 9.6121626719884706e-03
10 -2.8075235521271735e-03 -1.3623871023137487e-03 5.8239662571737674e-03
14 1.3437087236799391e-02 6.7003931924288747e-03 -1.9891185412763333e-02
15 -1.8452703361047870e-02 -4.0000392903741357e-03 -2.7341735630525025e-03
21 4.1611137129388080e-03 6.0963609810736478e-04 -1.4313689716161097e-02
19 -6.4717015921646583e-03 -3.9957221181742717e-03 1.3844550191294925e-02
17 -1.3958554568905567e-03 1.7381906579447370e-03 5.2517775213191684e-03
18 -4.3026576778840274e-02 -7.6695179604742928e-03 1.1255475012377551e-02
20 6.4886000465542233e-04 6.5164382404311004e-04 -5.3956739226563811e-03
63 1.2226358131748421e-02 1.0250816679084502e-02 1.9217260172838646e-02
61 6.5221165984286848e-03 -1.0410243267623737e-02 -2.8638418974043681e-02
64 2.3138005593419934e-02 -8.3275265126470169e-03 1.0377993998672048e-02
62 -3.7890086367722295e-03 7.4065403371645149e-04 3.0675151375489868e-03
65 -3.1449025855678713e-03 1.5011901957390624e-03 4.5218608305466583e-03
22 -1.2154083292419311e-02 2.3055352163817374e-02 2.0555371185385762e-02
2 4.6784232946250057e-04 -1.0563654273790231e-02 3.0510391440509948e-03
1 4.5278701525064144e-03 6.6550768369172321e-04 1.2071240038836520e-03
3 -1.1706147418189336e-02 7.2335542065577714e-03 -2.9498522594926628e-02
5 -1.5192389414126291e-02 -3.5427104399209965e-03 -6.0761203223420367e-03
4 -6.4260912163898701e-04 -6.1128475382706280e-03 -3.8078303503698771e-03
29 -2.4208368834696296e-02 -1.1460287970764017e-02 4.1813246481999175e-03
27 -5.7786919614584908e-04 1.4195764263310169e-04 -6.9842910237905460e-03
28 2.0610320338928050e-02 -1.6347559840105441e-02 -5.7904949807796851e-03
24 -9.2279500973356380e-04 5.3262765750421853e-03 -5.0789214754465468e-03
25 -2.9555163156673493e-02 -2.9634781206780681e-03 -5.9463545130234189e-04
23 1.7487382429472759e-03 -4.5545745179094727e-03 8.1437013887148656e-03
26 -1.8328254986221763e-03 -8.5101199401250542e-03 -2.0495393130052020e-03
30 1.9223951747828307e-03 2.7244202761310551e-03 -8.5486344552558394e-03
32 3.6122787853257914e-03 3.6079486758530317e-03 -7.5196682463351365e-03
31 -9.1557859565549356e-03 2.0821339218922816e-03 -1.2095481196972852e-03

Bonds

1 4 48 51
2 4 48 49
3 4 48 50
4 2 52 55
5 4 52 53
6 4 52 54
7 4 55 58
8 4 55 56
9 4 55 57
10 2 59 62
11 4 59 60
12 4 59 61
13 4 58 59
14 4 51 52
15 2 45 48
16 4 45 46
17 4 45 47
18 4 41 44
19 4 41 42
20 4 41 43
21 4 44 45
22 2 38 41
23 4 38 39
24 4 38 40
25 4 37 38
26 4 34 37
27 4 34 35
28 4 34 36
29 4 6 9
30 4 6 7
31 4 6 8
32 4 16 17
33 4 13 16
34 4 13 14
35 4 13 15
36 4 9 10
37 2 10 13
38 4 10 11
39 4 10 12
40 2 17 20
41 4 17 18
42 4 17 19
43 4 20 23
44 4 20 21
45 4 20 22
46 5 62 65
47 4 62 63
48 4 62 64
49 6 65 66
50 2 1 6
51 5 1 4
52 4 1 2
53 4 1 3
54 6 4 5
55 4 27 30
56 4 27 28
57 4 27 29
58 2 24 27
59 4 24 25
60 4 24 26
61 4 23 24
62 4 30 31
63 2 31 34
64 4 31 32
65 4 31 33

Angles

1 3 45 48 49
2 3 45 48 50
3 4 45 48 51
4 6 49 48 50
5 5 49 48 51
6 5 50 48 51
7 5 51 52 53
8 5 51 52 54
9 4 51 52 55
10 6 53 52 54
11 3 53 52 55
12 3 54 52 55
13 3 52 55 56
14 3 52 55 57
15 4 52 55 58
16 6 56 55 57
17 5 56 55 58
18 5 57 55 58
19 5 58 59 60
20 5 58 59 61
21 4 58 59 62
22 6 60 59 61
23 3 60 59 62
24 3 61 59 62
25 9 55 58 59
26 9 48 51 52
27 5 44 45 46
28 5 44 45 47
29 4 44 45 48
30 6 46 45 47
31 3 46 45 48
32 3 47 45 48
33 3 38 41 42
34 3 38 41 43
35 4 38 41 44
36 6 42 41 43
37 5 42 41 44
38 5 43 41 44
39 9 41 44 45
40 5 37 38 39
41 5 37 38 40
42 4 37 38 41
43 6 39 38 40
44 3 39 38 41
45 3 40 38 41
46 9 34 37 38
47 3 31 34 35
48 3 31 34 36
49 4 31 34 37
50 6 35 34 36
51 5 35 34 37
52 5 36 34 37
53 3 1 6 7
54 3 1 6 8
55 4 1 6 9
56 6 7 6 8
57 5 7 6 9
58 5 8 6 9
59 9 13 16 17
60 3 10 13 14
61 3 10 13 15
62 4 10 13 16
63 6 14 13 15
64 5 14 13 16
65 5 15 13 16
66 9 6 9 10
67 5 9 10 11
68 5 9 10 12
69 4 9 10 13
70 6 11 10 12
71 3 11 10 13
72 3 12 10 13
73 5 16 17 18
74 5 16 17 19
75 4 16 17 20
76 6 18 17 19
77 3 18 17 20
78 3 19 17 20
79 3 17 20 21
80 3 17 20 22
81 4 17 20 23
82 6 21 20 22
83 5 21 20 23
84 5 22 20 23
85 3 59 62 63
86 3 59 62 64
87 8 59 62 65
88 6 63 62 64
89 7 63 62 65
90 7 64 62 65
91 2 62 65 66
92 6 2 1 3
93 7 2 1 4
94 3 2 1 6
95 7 3 1 4
96 3 3 1 6
97 8 4 1 6
98 2 1 4 5
99 3 24 27 28
100 3 24 27 29
101 4 24 27 30
102 6 28 27 29
103 5 28 27 30
104 5 29 27 30
105 5 23 24 25
106 5 23 24 26
107 4 23 24 27
108 6 25 24 26
109 3 25 24 27
110 3 26 24 27
111 9 20 23 24
112 9 27 30 31
113 5 30 31 32
114 5 30 31 33
115 4 30 31 34
116 6 32 31 33
117 3 32 31 34
118 3 33 31 34

Dihedrals

1 1 45 48 51 52
2 2 45 48 51 52
3 3 45 48 51 52
4 4 51 52 55 58
5 5 51 52 55 58
6 1 52 55 58 59
7 2 52 55 58 59
8 3 52 55 58 59
9 12 58 59 62 65
10 13 58 59 62 65
11 14 58 59 62 65
12 1 55 58 59 62
13 2 55 58 59 62
14 3 55 58 59 62
15 1 48 51 52 55
16 2 48 51 52 55
17 3 48 51 52 55
18 4 44 45 48 51
19 5 44 45 48 51
20 1 38 41 44 45
21 2 38 41 44 45
22 3 38 41 44 45
23 1 41 44 45 48
24 2 41 44 45 48
25 3 41 44 45 48
26 4 37 38 41 44
27 5 37 38 41 44
28 1 34 37 38 41
29 2 34 37 38 41
30 3 34 37 38 41
31 1 31 34 37 38
32 2 31 34 37 38
33 3 31 34 37 38
34 1 1 6 9 10
35 2 1 6 9 10
36 3 1 6 9 10
37 1 13 16 17 20
38 2 13 16 17 20
39 3 13 16 17 20
40 1 10 13 16 17
41 2 10 13 16 17
42 3 10 13 16 17
43 1 6 9 10 13
44 2 6 9 10 13
45 3 6 9 10 13
46 4 9 10 13 16
47 5 9 10 13 16
48 4 16 17 20 23
49 5 16 17 20 23
50 1 17 20 23 24
51 2 17 20 23 24
52 3 17 20 23 24
53 6 59 62 65 66
54 7 59 62 65 66
55 8 59 62 65 66
56 6 6 1 4 5
57 7 6 1 4 5
58 8 6 1 4 5
59 12 4 1 6 9
60 13 4 1 6 9
61 14 4 1 6 9
62 1 24 27 30 31
63 2 24 27 30 31
64 3 24 27 30 31
65 4 23 24 27 30
66 5 23 24 27 30
67 1 20 23 24 27
68 2 20 23 24 27
69 3 20 23 24 27
70 1 27 30 31 34
71 2 27 30 31 34
72 3 27 30 31 34
73 4 30 31 34 37
74 5 30 31 34 37
