LAMMPS data file via write_data, version 20 Nov 2019, timestep = 20000

198 atoms
7 atom types
195 bonds
6 bond types
354 angles
9 angle types
222 dihedrals
14 dihedral types

-1.0500000000000000e+01 1.0500000000000000e+01 xlo xhi
-1.0500000000000000e+01 1.0500000000000000e+01 ylo yhi
-1.0500000000000000e+01 1.0500000000000000e+01 zlo zhi

Masses

1 15.9994
2 1.008
3 12.011
4 15.9994
5 1.008
6 15.9994
7 1.008

Pair Coeffs # lj/cut/tip4p/long

1 0.185199 3.1589
2 0 0
3 0.056 3.58141
4 0.1 2.93997
5 0.035 2.38761
6 0.192 3.14487
7 0.046 0.40001

Bond Coeffs # harmonic

1 0 0.9572
2 222.35 1.53
3 308.79 1.1111
4 359.76 1.1415
5 427.715 1.142
6 544.635 0.96

Angle Coeffs # charmm

1 0 104.52 0 0
2 50 109 0 0
3 26.5 110.1 22.53 2.179
4 45 111.5 0 0
5 13.0258 109.4 0 0
6 35.5 109 5.4 1.802
7 55 108.89 0 0
8 75.7 110.1 0 0
9 95 109.7 0 0

Dihedral Coeffs # charmm

1 0.57 1 0 0
2 0.29 2 0 0
3 0.43 3 0 0
4 0.59 1 180 0
5 1.16 2 0 0
6 0.12 1 0 0
7 0.42 2 0 0
8 0.29 3 0 0
9 2.87 1 180 0
10 0.03 2 0 0
11 0.23 3 0 0
12 1.36 1 180 0
13 0.16 2 0 0
14 1.01 3 0 0

Atoms # full

92 2 5 8.9999999999999997e-02 -5.9533431019855891e+00 7.2609740217947341e+00 -6.1287264593061341e-01 0 0 0
77 2 5 8.9999999999999997e-02 -6.0873237649814609e+00 3.7046209900852340e+00 4.4421299494676463e+00 0 0 0
88 2 5 8.9999999999999997e-02 -5.3956946735892082e+00 4.6246199652582440e+00 1.0330859668497949e+00 0 0 0
78 2 5 8.9999999999999997e-02 -5.2709472183705497e+00 4.4493733338196710e+00 6.0087901271968382e+00 0 0 0
5 1 7 4.1999999999999998e-01 -1.4006543985213520e+00 -5.0812545839205718e+00 -4.2226951673194399e+00 0 0 0
26 1 5 8.9999999999999997e-02 -2.3329400873262269e+00 -5.9593141953597983e-01 -4.4922956078832703e+00 0 0 0
4 1 6 -6.5000000000000002e-01 -1.6800858182468288e+00 -5.4204761175316056e+00 -5.0883912820704680e+00 0 0 0
25 1 5 8.9999999999999997e-02 -1.9455796195064226e+00 1.1782562984658087e+00 -4.8864985749878915e+00 0 0 0
1 1 3 5.0000000000000003e-02 -2.8329192507514085e+00 -5.3552489797458849e+00 -5.0018422816868835e+00 0 0 0
24 1 3 -1.0000000000000000e-02 -1.7230548889074935e+00 3.0694380413370986e-01 -4.1569905702587473e+00 0 0 0
9 1 4 -3.4000000000000002e-01 -2.4310326388423062e+00 -4.5206216153598868e+00 -3.0063373672625442e+00 0 0 0
6 1 3 -1.0000000000000000e-02 -3.1966766314119517e+00 -4.3819141318613477e+00 -3.8951820748198061e+00 0 0 0
7 1 5 8.9999999999999997e-02 -3.2281512584457301e+00 -3.3215734389031950e+00 -4.2850395791871012e+00 0 0 0
11 1 5 8.9999999999999997e-02 -3.3326644184252978e+00 -3.1045599653580731e+00 -1.8791712504883902e+00 0 0 0
142 3 3 -1.0000000000000000e-02 -1.0648471416596506e+00 -7.6015731454905833e+00 -2.0134942931188400e+00 0 1 0
10 1 3 -1.0000000000000000e-02 -2.4634067766039465e+00 -3.7707855723325796e+00 -2.0879751835631173e+00 0 0 0
146 3 5 8.9999999999999997e-02 -3.2061936853723236e+00 -8.1276065110401579e+00 -1.7988914440032659e+00 0 1 0
8 1 5 8.9999999999999997e-02 -4.3042638016841481e+00 -4.6057677959188448e+00 -3.6001955071381033e+00 0 0 0
150 3 5 8.9999999999999997e-02 -4.3331265460628128e+00 -7.8327825002535905e+00 5.7647165535539675e-02 0 1 0
148 3 4 -3.4000000000000002e-01 -2.3378443736170142e+00 -8.1474985617479607e+00 -1.7353682993567335e-01 0 1 0
147 3 5 8.9999999999999997e-02 -2.7873687830188212e+00 -6.5069662977756515e+00 -1.2159520227940075e+00 0 1 0
144 3 5 8.9999999999999997e-02 -6.8426856131218827e-01 -6.5716648052977771e+00 -1.8375534739767845e+00 0 1 0
145 3 3 -1.0000000000000000e-02 -2.4307003995240999e+00 -7.5990943279563457e+00 -1.1748049737873067e+00 0 1 0
143 3 5 8.9999999999999997e-02 -1.3843349438018620e+00 -7.6561558384378161e+00 -3.0645795702124761e+00 0 1 0
141 3 4 -3.4000000000000002e-01 -5.1211118076894668e-01 -8.6434914709126307e+00 -1.8842183175316991e+00 0 1 0
3 1 5 8.9999999999999997e-02 -3.3050520090925497e+00 -4.9473283514348161e+00 -5.9474632655397341e+00 0 0 0
102 2 5 8.9999999999999997e-02 -1.2816987679306646e+00 5.4446773758549583e+00 -3.7365267744593056e-01 0 0 0
16 1 4 -3.4000000000000002e-01 -1.0166274077481710e+00 -2.4096736368152176e+00 -2.9229789104485948e+00 0 0 0
154 3 5 8.9999999999999997e-02 -3.5188065334354257e+00 -7.7282886274130815e+00 2.6749329777520860e+00 0 1 0
12 1 5 8.9999999999999997e-02 -2.5109274538407531e+00 -4.4970072573213251e+00 -1.1923775647758763e+00 0 0 0
13 1 3 -1.0000000000000000e-02 -1.1395690353952797e+00 -2.9563071142441362e+00 -1.9082513665860130e+00 0 0 0
83 2 3 -1.0000000000000000e-02 -3.6108103479799234e+00 5.0371689376016668e+00 2.1962119588034708e+00 0 0 0
14 1 5 8.9999999999999997e-02 -2.7550905416201982e-01 -3.5564660876166045e+00 -1.4804107782582745e+00 0 0 0
2 1 5 8.9999999999999997e-02 -3.3063292821704531e+00 -6.3822863595426664e+00 -4.7975219704756391e+00 0 0 0
81 2 5 8.9999999999999997e-02 -4.6148558601968395e+00 5.9480907598010262e+00 4.4185811137733850e+00 0 0 0
87 2 5 8.9999999999999997e-02 -3.9242984059627659e+00 4.6879684704267657e+00 6.0762071537763238e-02 0 0 0
27 1 3 -1.0000000000000000e-02 -2.5409287558057096e+00 6.6225279972496431e-01 -2.8724763043506822e+00 0 0 0
28 1 5 8.9999999999999997e-02 -3.1412585055233588e+00 -2.6062152065120858e-01 -2.5375174921725594e+00 0 0 0
98 2 5 8.9999999999999997e-02 -2.1471418714231021e+00 7.5724201172326389e+00 9.3232181048680518e-01 0 0 0
100 2 3 -1.0000000000000000e-02 -8.7546112836685430e-01 6.5592775577781817e+00 -4.3131240991190950e-01 0 0 0
74 2 5 8.9999999999999997e-02 -5.1437082759862474e+00 1.8206933169452040e+00 3.8287718633377796e+00 0 0 0
30 1 4 -3.4000000000000002e-01 -1.9732563403366685e+00 6.6424396532745877e-01 -1.8245717089586806e+00 0 0 0
97 2 3 -1.0000000000000000e-02 -2.0340235491020522e+00 7.6513236268375717e+00 -2.2874170504184699e-01 0 0 0
99 2 5 8.9999999999999997e-02 -1.7934710288253684e+00 8.6773971870945186e+00 -6.0442669247878456e-01 0 0 0
37 1 4 -3.4000000000000002e-01 -1.4225798665142422e+00 9.5409751333388804e-01 7.1374279214107428e-01 0 0 0
34 1 3 -1.0000000000000000e-02 -1.0288941763845572e+00 1.8242307785395431e+00 2.6361330864943869e-04 0 0 0
32 1 5 8.9999999999999997e-02 -2.8230616561708324e+00 2.2402617146356576e+00 -1.1559770455540936e+00 0 0 0
96 2 4 -3.4000000000000002e-01 -2.9504792754014453e+00 7.1951432440958305e+00 -8.6142958435251782e-01 0 0 0
31 1 3 -1.0000000000000000e-02 -1.7827627027632178e+00 1.7811255652582347e+00 -1.3904193096160298e+00 0 0 0
33 1 5 8.9999999999999997e-02 -1.2121800852747711e+00 2.4936340944668927e+00 -2.0283375111326865e+00 0 0 0
80 2 5 8.9999999999999997e-02 -3.1814620321567539e+00 4.7023908918389106e+00 4.5382963657055351e+00 0 0 0
82 2 4 -3.4000000000000002e-01 -4.4350801991111357e+00 4.7130128925135191e+00 2.9938732430818642e+00 0 0 0
93 2 3 -1.0000000000000000e-02 -3.9206728804309470e+00 7.7452866508971150e+00 -7.4305822732912719e-01 0 0 0
95 2 5 8.9999999999999997e-02 -4.1930414271344363e+00 8.2473931680727226e+00 -1.7856972830307651e+00 0 0 0
75 2 4 -3.4000000000000002e-01 -4.4796333203757790e+00 2.9322938467074873e+00 5.3375428798757119e+00 0 0 0
84 2 5 8.9999999999999997e-02 -2.7936347778429749e+00 4.2140354689784223e+00 2.0768929739439947e+00 0 0 0
151 3 5 8.9999999999999997e-02 -3.4451667210829502e+00 -9.1392076455050901e+00 8.1424714088819172e-01 0 1 0
149 3 3 -1.0000000000000000e-02 -3.2859862490471641e+00 -8.0765956089040252e+00 4.9781973657093331e-01 0 1 0
29 1 5 8.9999999999999997e-02 -3.1907056067509583e+00 1.5601992184357674e+00 -3.2154987422164489e+00 0 0 0
39 1 5 8.9999999999999997e-02 -2.0816935519122821e+00 5.6400804596437293e-01 2.2319256150218614e+00 0 0 0
152 3 3 -1.0000000000000000e-02 -2.8466071507644632e+00 -7.3354516170859458e+00 1.7837867866338815e+00 0 1 0
153 3 5 8.9999999999999997e-02 -1.7579946529750889e+00 -7.6825168985797712e+00 1.9768781426649300e+00 0 1 0
159 3 3 -1.0000000000000000e-02 -1.8511379876259961e+00 -4.2649056874678015e+00 1.9677287467429594e+00 0 1 0
162 3 4 -3.4000000000000002e-01 -1.0521381252921094e+00 -4.5718574302055739e+00 1.1859740400343890e+00 0 1 0
160 3 5 8.9999999999999997e-02 -1.6117154418087709e+00 -3.6485612653579444e+00 2.8948888734939207e+00 0 1 0
157 3 5 8.9999999999999997e-02 -3.4898743969984887e+00 -4.9942170448918359e+00 3.0224247685346852e+00 0 1 0
158 3 5 8.9999999999999997e-02 -2.0136531082122739e+00 -5.8507353382682981e+00 3.3553694570595423e+00 0 1 0
156 3 3 -1.0000000000000000e-02 -2.5842874304720818e+00 -5.4967259725619897e+00 2.4603007553390643e+00 0 1 0
17 1 3 -1.0000000000000000e-02 -7.0799663675277513e-02 -1.7160173702500892e+00 -3.0162171422028727e+00 0 0 0
155 3 4 -3.4000000000000002e-01 -3.0602972108485185e+00 -6.2118105710430696e+00 1.6261450533408086e+00 0 1 0
91 2 5 8.9999999999999997e-02 -4.7959038392572273e+00 5.9795183616918308e+00 -1.2612928857513379e+00 0 0 0
63 1 5 8.9999999999999997e-02 -1.3249259030397083e+00 -1.1638526178179014e+00 6.1602181651125125e+00 0 0 0
65 1 6 -6.5000000000000002e-01 -1.6152937302864261e+00 -2.1218513738010634e+00 4.6857585804191801e+00 0 0 0
66 1 7 4.1999999999999998e-01 -8.1050316769828390e-01 -1.8625983893700759e+00 4.2145019536042527e+00 0 0 0
62 1 3 5.0000000000000003e-02 -1.3076976542624195e+00 -2.2435210045553378e+00 5.7655511300064095e+00 0 0 0
79 2 3 -1.0000000000000000e-02 -4.2695344093736063e+00 4.8895107020769304e+00 4.1485940278765865e+00 0 0 0
15 1 5 8.9999999999999997e-02 -1.4089941360970748e+00 -2.1718824144402342e+00 -1.0225511707729238e+00 0 0 0
64 1 5 8.9999999999999997e-02 -2.0065794444924050e+00 -2.9990545866665284e+00 6.2453815475319718e+00 0 0 0
106 2 5 8.9999999999999997e-02 -2.8867477524232460e-01 5.7607392425961299e+00 -2.3934408886972656e+00 0 0 0
161 3 5 8.9999999999999997e-02 -2.6664931105820844e+00 -3.6814921914895167e+00 1.4374735157061094e+00 0 1 0
42 1 5 8.9999999999999997e-02 -1.2251295922850780e-01 -9.2739824204395499e-02 3.3373002198030415e+00 0 0 0
67 2 3 5.0000000000000003e-02 -3.8232770595550716e+00 7.9572382442735334e-01 5.3713829318591673e+00 0 0 0
85 2 5 8.9999999999999997e-02 -3.1143411111829238e+00 6.0348778589178886e+00 2.5178188482865149e+00 0 0 0
70 2 6 -6.5000000000000002e-01 -2.9106932850457157e+00 1.0929135378737311e+00 6.0297852974559181e+00 0 0 0
72 2 3 -1.0000000000000000e-02 -4.3512516061635180e+00 2.0589436699887389e+00 4.5755044640375466e+00 0 0 0
68 2 5 8.9999999999999997e-02 -4.5867540877137776e+00 2.2709101916364119e-01 5.9082572100839847e+00 0 0 0
90 2 3 -1.0000000000000000e-02 -4.9675508866341991e+00 6.7175837238979996e+00 -4.0917628541878964e-01 0 0 0
94 2 5 8.9999999999999997e-02 -4.1376666512821130e+00 8.6117716977757741e+00 2.2566436202251402e-02 0 0 0
36 1 5 8.9999999999999997e-02 -1.1476321097211641e+00 2.8821070838942382e+00 4.5172100262588755e-01 0 0 0
38 1 3 -1.0000000000000000e-02 -1.1861255223628866e+00 1.1198687129415106e+00 1.8476381510781488e+00 0 0 0
73 2 5 8.9999999999999997e-02 -3.5003042013950703e+00 2.3313882558986050e+00 3.9068899415389104e+00 0 0 0
40 1 5 8.9999999999999997e-02 -1.3444889323105795e+00 2.0881336926365663e+00 2.3796252122018351e+00 0 0 0
23 1 4 -3.4000000000000002e-01 -5.3859453672271285e-01 2.8022310736469364e-01 -4.0616062114015596e+00 0 0 0
22 1 5 8.9999999999999997e-02 -3.0631069991168675e-01 -1.2835686173807459e+00 -5.1764745654281077e+00 0 0 0
71 2 7 4.1999999999999998e-01 -3.1294697660505326e+00 1.9511046922669004e+00 6.4161608943946185e+00 0 0 0
76 2 3 -1.0000000000000000e-02 -5.1336258074743011e+00 3.9108211845831198e+00 4.9893568756188014e+00 0 0 0
86 2 3 -1.0000000000000000e-02 -4.4481603927350628e+00 5.2663666514435885e+00 8.8061218393475149e-01 0 0 0
69 2 5 8.9999999999999997e-02 -3.5020488296980865e+00 1.4650514857078586e-01 4.4952617776970802e+00 0 0 0
89 2 4 -3.4000000000000002e-01 -4.9780275742499320e+00 6.3473255850173578e+00 7.2067632643702040e-01 0 0 0
101 2 5 8.9999999999999997e-02 -1.7137354824011308e-01 6.5591200422560689e+00 4.7272064775655809e-01 0 0 0
20 1 3 -1.0000000000000000e-02 -4.7760578971003720e-02 -7.3784334945687580e-01 -4.2186440329278918e+00 0 0 0
140 3 5 8.9999999999999997e-02 6.6234730700883071e-01 -9.4236108806449792e+00 -3.1334346885667124e+00 0 1 0
18 1 5 8.9999999999999997e-02 8.8613636871510215e-01 -2.3645318106679207e+00 -3.0930315698112456e+00 0 0 0
21 1 5 8.9999999999999997e-02 1.0512296825885423e+00 -5.2208086133792497e-01 -4.4555561878822765e+00 0 0 0
165 3 5 8.9999999999999997e-02 4.0395444079045889e-01 -3.4577625178539528e+00 1.7084724195254548e+00 0 1 0
139 3 5 8.9999999999999997e-02 1.1844417423600044e+00 -7.7099293756675893e+00 -2.5726109752658251e+00 0 1 0
167 3 5 8.9999999999999997e-02 3.0418537350202979e-01 -6.2410790561027110e+00 2.6827537319088829e-01 0 1 0
134 3 5 8.9999999999999997e-02 2.4629209412338167e+00 -9.3207301066175621e+00 -1.3922210891101461e+00 0 1 0
45 1 3 -1.0000000000000000e-02 1.4749133530125049e+00 1.5058467936505611e+00 3.0964171213668554e+00 0 0 0
133 3 3 5.0000000000000003e-02 1.3891001675940664e+00 -9.1823961992669236e+00 -1.0811602931120541e+00 0 1 0
136 3 6 -6.5000000000000002e-01 1.3957144911040578e+00 -8.4273030049169737e+00 -2.3063520330530851e-01 0 1 0
129 2 5 8.9999999999999997e-02 3.4712800125297449e+00 3.4765756595798720e+00 6.3080248997427757e-01 0 0 0
186 3 5 8.9999999999999997e-02 2.6729140655419541e+00 -9.7898521358579049e-01 -2.2710332589377482e+00 0 1 0
131 2 6 -6.5000000000000002e-01 3.2964651866220969e+00 5.3258007603995017e+00 6.3303373323460499e-01 0 0 0
185 3 5 8.9999999999999997e-02 1.4897566492670991e+00 -4.5934697372388894e-01 -8.9384201679155839e-01 0 1 0
183 3 4 -3.4000000000000002e-01 3.5017347621378287e+00 -3.6017289987842793e-01 -6.9936895533972943e-01 0 1 0
175 3 5 8.9999999999999997e-02 2.7034315396470388e+00 -4.1353619598199227e+00 -2.6356309653812793e+00 0 1 0
174 3 5 8.9999999999999997e-02 4.0706426541146561e+00 -4.6788193541203968e+00 -1.7112640260866456e+00 0 1 0
171 3 5 8.9999999999999997e-02 1.1287872054626809e+00 -5.1680028444953088e+00 -1.6857617847676531e+00 0 1 0
172 3 5 8.9999999999999997e-02 2.3921095938267007e+00 -6.1539377670059929e+00 -7.8607358442456154e-01 0 1 0
170 3 3 -1.0000000000000000e-02 1.9952978540653228e+00 -5.0497937486152962e+00 -9.6524187571405928e-01 0 1 0
176 3 4 -3.4000000000000002e-01 3.1118271547532541e+00 -2.9726266531878078e+00 -1.2500221738670168e+00 0 1 0
173 3 3 -1.0000000000000000e-02 3.0571534719986522e+00 -4.1435837786620349e+00 -1.5968366740797333e+00 0 1 0
46 1 5 8.9999999999999997e-02 2.1554565514092441e+00 2.2793306752598994e+00 2.6410819599776421e+00 0 0 0
137 3 7 4.1999999999999998e-01 4.3257381287136648e-01 -8.3396069790871277e+00 -6.4616697461766404e-02 0 1 0
135 3 5 8.9999999999999997e-02 1.1130476143977006e+00 -1.0240196002834530e+01 -7.5163381764597714e-01 0 1 0
104 2 3 -1.0000000000000000e-02 5.3819809607580227e-01 6.1116972236044438e+00 -1.7458346440633317e+00 0 0 0
184 3 3 -1.0000000000000000e-02 2.5067560343221214e+00 -3.0533823110008962e-01 -1.3587411857443004e+00 0 1 0
109 2 5 8.9999999999999997e-02 2.0725536030931675e+00 5.6599714546522737e+00 -3.3106450341287625e+00 0 0 0
188 3 5 8.9999999999999997e-02 1.3336787056114909e+00 1.1394255109078233e+00 -2.6254821764703404e+00 0 1 0
193 3 5 8.9999999999999997e-02 3.1922629135590368e+00 3.2545650647056519e+00 -2.7895815832210786e+00 0 1 0
112 2 5 8.9999999999999997e-02 2.7675021126315382e+00 8.6099393508452131e+00 -2.1023490789087158e+00 0 0 0
187 3 3 -1.0000000000000000e-02 2.3127124106796710e+00 1.0929032493033055e+00 -2.0364410144776928e+00 0 1 0
189 3 5 8.9999999999999997e-02 1.9619872735866879e+00 1.7668593211363464e+00 -1.1226274559565190e+00 0 1 0
114 2 3 -1.0000000000000000e-02 4.7292774855019086e+00 7.6500735239290387e+00 -1.9753377617548913e+00 0 0 0
190 3 4 -3.4000000000000002e-01 3.2188707821831248e+00 1.3748821990629874e+00 -2.7343162900735161e+00 0 1 0
116 2 5 8.9999999999999997e-02 4.7268138913738653e+00 7.3977778971364554e+00 -8.0644937467039923e-01 0 0 0
59 1 3 -1.0000000000000000e-02 1.4006001590625664e-01 -2.8939599462942764e+00 5.8349906119189372e+00 0 0 0
113 2 5 8.9999999999999997e-02 3.3740132324070924e+00 7.9246446922853142e+00 -3.6866088309892868e+00 0 0 0
192 3 5 8.9999999999999997e-02 2.2445109893086590e+00 2.4359038693706707e+00 -4.1021729940926495e+00 0 1 0
110 2 4 -3.4000000000000002e-01 2.6293510615812714e+00 6.8531520047356533e+00 -2.0540591009986877e+00 0 0 0
41 1 3 -1.0000000000000000e-02 6.4881358577106016e-02 3.6803218882190181e-01 2.3002914818255360e+00 0 0 0
105 2 5 8.9999999999999997e-02 8.8649859149476851e-01 5.2125465856249171e+00 -1.0999717296839993e+00 0 0 0
107 2 3 -1.0000000000000000e-02 1.7822899031987312e+00 6.5564125613519098e+00 -2.6483943268903563e+00 0 0 0
111 2 3 -1.0000000000000000e-02 3.3113791223075744e+00 7.7284071106565966e+00 -2.5234232728996928e+00 0 0 0
191 3 3 -1.0000000000000000e-02 3.1532164896288872e+00 2.3176025177731425e+00 -3.4019002200009387e+00 0 1 0
51 1 4 -3.4000000000000002e-01 1.9832131118360303e+00 -3.0432581737548897e-01 4.4678647146504273e+00 0 0 0
194 3 3 5.0000000000000003e-02 4.4591910585057875e+00 2.3536342349786170e+00 -4.2921033517181595e+00 0 1 0
198 3 7 4.1999999999999998e-01 5.1398250504037710e+00 1.5556976182802511e+00 -2.9554015582322828e+00 0 1 0
44 1 4 -3.4000000000000002e-01 1.0972776935222042e+00 9.5441792641556600e-01 2.1338204700289189e+00 0 0 0
108 2 5 8.9999999999999997e-02 1.3322580880780370e+00 7.2276917045591711e+00 -3.4475763089669944e+00 0 0 0
196 3 5 8.9999999999999997e-02 4.4651750499089475e+00 3.4209147934919479e+00 -4.7592280236231854e+00 0 1 0
195 3 5 8.9999999999999997e-02 4.3594228197346441e+00 1.5783157591422630e+00 -5.1479284970515060e+00 0 1 0
49 1 5 8.9999999999999997e-02 3.2757900663125805e+00 2.7113893924105875e-01 3.0276354169959703e+00 0 0 0
52 1 3 -1.0000000000000000e-02 2.5688199208662326e+00 -1.3107150812947916e+00 4.3703115897924123e+00 0 0 0
182 3 5 8.9999999999999997e-02 2.9201847032741943e+00 -1.2785088923510015e+00 9.6964869835568179e-01 0 1 0
180 3 3 -1.0000000000000000e-02 3.6181446073084942e+00 -1.2651292814700841e+00 6.6542410623294176e-02 0 1 0
181 3 5 8.9999999999999997e-02 4.6783949852000495e+00 -9.4588006305758909e-01 4.2866991166646706e-01 0 1 0
177 3 3 -1.0000000000000000e-02 3.8662813840233907e+00 -2.7230694825952315e+00 -3.9861938589350376e-01 0 1 0
168 3 5 8.9999999999999997e-02 1.7296215511660233e+00 -5.8670645117369151e+00 1.4087235395303566e+00 0 1 0
50 1 5 8.9999999999999997e-02 2.9735716183508369e+00 1.1814274692364557e+00 4.5420399965711784e+00 0 0 0
166 3 3 -1.0000000000000000e-02 9.1358777914093736e-01 -5.3607962716359179e+00 7.1980557463358896e-01 0 1 0
169 3 4 -3.4000000000000002e-01 1.4811339255906357e+00 -4.5794338654808486e+00 1.7457684362054665e-02 0 1 0
57 1 5 8.9999999999999997e-02 2.3492055989287985e+00 -2.6563219685254671e+00 6.1326945724641417e+00 0 0 0
128 2 3 5.0000000000000003e-02 3.7700044183966712e+00 4.3863617289488266e+00 1.4990973914221717e-01 0 0 0
53 1 5 8.9999999999999997e-02 2.4505828362468551e+00 -1.6641556449474579e+00 3.2738861366367886e+00 0 0 0
54 1 5 8.9999999999999997e-02 3.6529938024478228e+00 -1.2923109686467085e+00 4.6308477466229210e+00 0 0 0
55 1 3 -1.0000000000000000e-02 1.9086238215100428e+00 -2.4745338407305537e+00 5.0691464182399839e+00 0 0 0
56 1 5 8.9999999999999997e-02 2.1511902015815134e+00 -3.4286686748573802e+00 4.4685383555733917e+00 0 0 0
48 1 3 -1.0000000000000000e-02 2.4526224664182630e+00 5.2399934483879684e-01 3.7887992657332532e+00 0 0 0
58 1 4 -3.4000000000000002e-01 7.3328933965724763e-01 -2.3841978466192741e+00 4.9325389489034999e+00 0 0 0
60 1 5 8.9999999999999997e-02 4.3573588511792111e-01 -2.6384930936283872e+00 6.8912647989079918e+00 0 0 0
130 2 5 8.9999999999999997e-02 3.5025911465510262e+00 4.3445551472621862e+00 -9.4887473624135354e-01 0 0 0
19 1 5 8.9999999999999997e-02 4.4157736560361607e-03 -1.0044986415958566e+00 -2.1500053097555183e+00 0 0 0
43 1 5 8.9999999999999997e-02 3.0127515906700392e-01 -6.0665258061970728e-01 1.7506442787773708e+00 0 0 0
132 2 7 4.1999999999999998e-01 3.2156085178749700e+00 6.0054496719280710e+00 -5.0724586715087519e-02 0 0 0
179 3 5 8.9999999999999997e-02 4.8383709368913737e+00 -2.6649303559028277e+00 -9.7611308559070498e-01 0 1 0
47 1 5 8.9999999999999997e-02 7.9399578410405225e-01 2.1081370750411024e+00 3.7686535778746300e+00 0 0 0
138 3 3 -1.0000000000000000e-02 5.9790520544617010e-01 -8.6304764032826213e+00 -2.2766710209628291e+00 0 1 0
178 3 5 8.9999999999999997e-02 4.0843149937424696e+00 -3.4632280569589926e+00 4.6910497802823281e-01 0 1 0
103 2 4 -3.4000000000000002e-01 6.0987231225482191e-02 6.9612738412968280e+00 -1.0377979858544888e+00 0 0 0
163 3 3 -1.0000000000000000e-02 6.9280480664850840e-04 -4.5258779345795661e+00 1.6537860305743897e+00 0 1 0
164 3 5 8.9999999999999997e-02 1.6414489005407976e-01 -5.0998099551173270e+00 2.6374406797001635e+00 0 1 0
61 1 5 8.9999999999999997e-02 5.9438897195982526e-02 -4.0298668336705443e+00 5.8188673735731369e+00 0 0 0
35 1 5 8.9999999999999997e-02 1.1846592942535991e-01 1.6891544595991292e+00 -1.2449162452619726e-01 0 0 0
123 2 5 8.9999999999999997e-02 5.4605681704863347e+00 4.2479702333289726e+00 -2.1312536636544639e+00 0 0 0
122 2 5 8.9999999999999997e-02 7.2048498165791335e+00 4.5106625996875387e+00 -1.6203237734864586e+00 0 0 0
119 2 5 8.9999999999999997e-02 7.0017187393613707e+00 6.2780497988111632e+00 -2.9726806478020773e+00 0 0 0
121 2 3 -1.0000000000000000e-02 6.1455174084800719e+00 4.9567907292941262e+00 -1.5242598187642651e+00 0 0 0
118 2 3 -1.0000000000000000e-02 6.2706522656939034e+00 6.3989372802117126e+00 -2.1050193776692834e+00 0 0 0
126 2 5 8.9999999999999997e-02 5.5505371714075720e+00 4.1083805799522137e+00 1.2868969112881312e+00 0 0 0
124 2 4 -3.4000000000000002e-01 5.8495430855172019e+00 5.0408839764057136e+00 -3.4181357035272220e-01 0 0 0
125 2 3 -1.0000000000000000e-02 5.3355325329474947e+00 4.1353107662148059e+00 1.4605456072260281e-01 0 0 0
120 2 5 8.9999999999999997e-02 6.9100027933723256e+00 6.9621655313447857e+00 -1.3061519269680733e+00 0 0 0
127 2 5 8.9999999999999997e-02 5.4209972428662656e+00 3.0079524420974102e+00 -2.8231672518689366e-01 0 0 0
117 2 4 -3.4000000000000002e-01 5.3074636815396232e+00 6.8617170675277697e+00 -2.5895505473709579e+00 0 0 0
197 3 6 -6.5000000000000002e-01 5.4141602213230824e+00 2.1515118519313887e+00 -3.6657498875900321e+00 0 1 0
115 2 5 8.9999999999999997e-02 5.3459631648382464e+00 8.5486189015232377e+00 -2.0544245000781074e+00 0 0 0

Velocities

92 3.8102859783598814e-02 -2.5355424575907125e-02 3.8237356839249635e-03
77 -1.3767737429794086e-02 -2.9830225868518825e-02 1.4584376879157293e-02
88 2.6097633109722802e-03 -6.2400929567024066e-03 -5.5306454411962547e-03
78 7.0081553853866396e-03 3.8234591456028186e-02 -1.3445170260367408e-02
5 1.2410899029059145e-02 -1.8205944493041061e-02 -6.8636766064939447e-04
26 3.9813821903437645e-03 1.6563018611539575e-02 1.0912305597671762e-02
4 4.0077647623614114e-03 -5.4511475208882561e-03 -3.0110549445057874e-03
25 2.4119664237683851e-02 2.0111600731149803e-03 -2.3211416876721729e-02
1 1.7580945777217983e-03 -3.4292983506433185e-03 -1.7665572463680924e-03
24 5.5979977952639757e-03 1.1640664529513083e-02 4.4680040695749476e-03
9 2.1617565042359545e-04 3.3488054488022635e-04 8.5610576769889013e-05
6 3.4134728517096619e-03 3.9468557708731040e-03 -2.3274239751979162e-03
7 5.8857052912200908e-04 1.9918294899988614e-02 -8.4268976387499601e-03
11 -4.7488223312560945e-02 5.7467963504495689e-03 -1.0699223272970950e-02
142 1.2049558618700268e-04 1.8098450044456735e-03 3.5325851079219431e-03
10 3.2986914307715515e-03 -1.8715578592741039e-03 -2.2013486516381949e-03
146 -8.7713238858674585e-03 -1.9929574058014841e-03 1.0835874917489271e-02
8 -1.3945167054464025e-02 -2.3304249817626736e-02 -2.3927685747629348e-02
150 -1.2181350575901570e-02 1.5516355861511556e-02 -1.1069190634265270e-02
148 4.2163321156179767e-03 -1.9965669246419463e-03 -5.1868994031364192e-03
147 3.3854283062765077e-02 -2.2682012680415222e-02 3.2903749949642784e-02
144 1.5587275881294162e-02 -9.0663577190816021e-03 -1.7400150892645898e-02
145 1.8397431238340717e-03 1.8934045891852772e-03 -3.6879395689641895e-03
143 -6.1160228702280672e-03 5.8195274594669910e-03 -8.9840071470020984e-03
141 4.8310327179038144e-03 1.7348196293315089e-03 6.9196280185673440e-04
3 -2.1038620087417925e-02 -7.1318157557983264e-03 8.3458532979331802e-03
102 -3.4313209704035647e-03 -2.4621988742240558e-02 -2.4891693465135346e-02
16 3.8347139320405667e-03 -9.0792274984462164e-04 3.3738870406168704e-03
154 4.9821690234528905e-03 -1.4856062972061971e-02 1.0760326265566431e-02
12 8.4139299735982581e-03 3.3709116395728828e-03 1.2404830694337985e-02
13 -2.3261619998952961e-03 3.5449713672014143e-03 2.4955716732980760e-03
83 -3.0257966664411890e-03 -3.0312504009147013e-03 5.7687693223791685e-03
14 1.5132060888596288e-02 -1.4097270982807495e-02 2.1821287433902415e-03
2 -2.4399452262269201e-02 -6.6001612948527960e-03 -3.4308969623441810e-03
81 -3.5976868036517437e-02 2.7551824843299124e-02 -4.1402796466482785e-03
87 -2.4640281296862726e-03 -1.2446846831594922e-02 -1.3515677024390974e-02
27 6.2835784657728514e-03 1.3061282406726141e-03 4.7835233904742046e-03
28 -1.6912885346073315e-02 -2.4569127044702856e-02 -6.8091088793032963e-03
98 3.7081890301143630e-03 -1.2664191026801752e-02 1.2476818506222735e-02
100 -4.0001034704269887e-03 -8.6755387792375703e-03 -4.5736179281510240e-04
74 -4.1309483289692491e-03 -2.5343649215362062e-03 2.5231427302993847e-03
30 7.1162140236601904e-04 6.5680267044153698e-04 4.4065327436505685e-03
97 -5.2067229754821972e-03 4.5896107863642004e-03 5.7412976401613790e-03
99 1.0939988351040963e-02 2.1940985907705081e-02 -5.7270227566349969e-03
37 -6.3803163878249913e-03 1.2991928822826610e-03 8.4741263732291273e-04
34 3.7514460609193901e-03 5.9495399375784370e-03 -4.7548073098704667e-03
32 5.9279836822366547e-03 -4.0376842047040486e-03 2.2124754342103592e-02
96 3.0389443960853312e-03 -5.2890742409885741e-03 4.4199459832545860e-03
31 6.0493129204234057e-04 -2.2731341069397913e-04 4.6450267365618844e-03
33 -2.2804179901466517e-02 3.0874008088188900e-03 -1.9710761276083642e-02
80 9.9895953633737326e-03 2.3815755713249412e-02 5.7274106318842555e-03
82 -5.6393431054114424e-03 -2.7465598087429547e-04 4.0212549350350756e-03
93 7.6134270738039784e-03 -2.2225092215454622e-03 8.6346429850566574e-03
95 -2.2356457306954014e-02 9.8385354054143104e-03 2.0348146389107119e-03
75 -2.8339222155916687e-03 4.4198674449132409e-03 7.1629251666300280e-03
84 5.4715624061933647e-03 4.1503195334249815e-02 -5.5265533622104492e-03
151 1.5253427602948084e-02 3.2438302831689983e-03 -8.1075244600053390e-03
149 -8.2341576674215492e-03 4.9874562630071702e-03 1.7366280198920872e-03
29 -2.5145802513708588e-02 -1.1243529755305902e-02 -6.6625049065430460e-03
39 -1.2700545843847669e-02 2.9939498154221766e-02 2.2388339959689501e-03
152 -1.3747849919814961e-03 -3.4427073515847900e-04 3.1260938694144052e-04
153 -8.4671226163623645e-04 -1.5391715304719887e-02 1.5377466808690676e-02
159 -1.3421291786665762e-03 -1.1932972733585345e-02 -5.8819189207011888e-03
162 -7.1638340001218079e-03 6.7242074599107946e-03 1.3943791902092920e-03
160 -8.7275803077892251e-03 -1.9994696571656031e-02 -3.4826046317069682e-02
157 3.5915014123473241e-02 -7.3382317807385517e-03 1.8034173686305000e-02
158 6.5483039952055769e-03 1.4713218244529324e-02 -1.0858858771047640e-02
156 2.0477528361499265e-03 2.7998444782765613e-03 2.5399633699825373e-03
17 -2.7937999960575147e-03 -3.0897678767251588e-03 5.6605665041750697e-04
155 1.0830623008110262e-02 -2.1743908111815720e-03 7.5525148546146314e-03
91 1.8474024701461297e-02 -2.9760248881411714e-02 -3.7754175174418925e-02
63 -1.2069497111900175e-02 1.7297896358530452e-02 -3.0569655118654398e-03
65 6.6674241424959186e-03 3.0020547773033498e-03 -2.7387497125946642e-03
66 2.3139272956874665e-02 6.9058902850356145e-03 1.1549029780690589e-02
62 -2.3782324903326908e-03 9.1589483481077563e-03 2.9032458825442222e-03
79 4.1539070163958153e-03 1.7588686765293882e-04 -6.1658217986593454e-03
15 -3.0430594681137554e-02 -1.2041626018805852e-03 1.6998165455174099e-02
64 2.8696958353586040e-02 7.2538257791193717e-04 5.0322242825720726e-03
106 -1.8354513430040003e-02 -1.6972717959265601e-03 2.1496886109351451e-02
161 2.6190548400819795e-02 -3.7845011887899932e-03 1.4819918068535755e-02
42 4.8740959451932936e-03 3.2134917223952300e-02 2.8174223235267601e-03
67 3.4234903212439883e-04 -1.2620627564537135e-02 1.9385716565711202e-03
85 -2.4127333879760439e-02 -7.4624021831975239e-03 -2.0630623521273126e-03
70 -1.9164734741736211e-03 3.7971727064105543e-03 -4.3937612536106892e-03
72 -3.5988962411010322e-03 1.6656914578233051e-03 5.2122321076783808e-03
68 -2.7145078996662780e-02 -5.4593995739224905e-03 -8.0459680909793548e-03
90 1.8170013100905337e-03 3.1663325613822254e-03 -4.4088363291528527e-03
94 9.5443107130548802e-07 -3.9211750866974121e-02 9.1783996847062694e-03
36 9.8869935517795979e-03 -1.8282827106401473e-03 -1.9712338113498330e-03
38 9.2206117552731909e-04 3.8924432968342401e-03 -3.8051118057227085e-03
73 -3.2009651022392969e-02 -1.0103474169188229e-02 -2.1068979049538340e-02
40 1.5355856474233645e-02 -1.8563671843129813e-02 8.9969269631655687e-03
23 5.1246010737571717e-03 8.7166602333287784e-04 3.9532028723973314e-05
22 -1.2069473962212239e-02 5.7709979585648316e-03 -5.7371961840951818e-03
71 -2.4581512219166296e-02 -7.2398726588049323e-04 3.4994962195691393e-04
76 -4.0744460543435095e-03 -3.8292002714103179e-03 -7.2819298023907263e-03
86 3.1810099379029817e-03 -5.0473889575739618e-03 5.6472142923247965e-03
69 2.7539477753885766e-02 1.1772617047925139e-02 -3.0443142973761044e-03
89 2.8282051591893508e-03 5.3665783749790013e-03 -4.8612121095565342e-03
101 1.3043865209246863e-02 -5.6003910726824735e-03 -1.0495939757897929e-02
20 -1.0587283815909034e-02 1.4070015919383759e-03 -7.6905132074602510e-04
140 8.8720801246709724e-03 -2.6395884665105333e-03 -4.9285188599575216e-03
18 -7.4050935531482683e-03 -6.6821025631857755e-03 -3.4019029606875899e-03