LAMMPS data file via write_data, version 8 Feb 2023, timestep = 50000

309 atoms
2 atom types
206 bonds
1 bond types
103 angles
1 angle types

-7.285678240068315 7.285678240068315 xlo xhi
-7.285678240068315 7.285678240068315 ylo yhi
-7.285678240068315 7.285678240068315 zlo zhi

Masses

1 15.9994
2 1.008

Pair Coeffs # lj/cut/tip4p/long

1 0.18481 3.165
2 0 0

Bond Coeffs # harmonic

1 0 0.9572

Angle Coeffs # harmonic

1 0 104.52

Atoms # full

122 41 2 0.527 3.4370787943019563 -0.26713810723170717 -5.917371530448991 0 0 1
91 31 1 -1.054 -4.6878477856922665 -3.142368383622717 -6.393512446184639 0 0 1
228 76 2 0.527 -2.789873054180789 -5.253172556591895 -3.716772100639852 0 0 0
227 76 2 0.527 -1.953452441383261 -4.310448983767557 -4.555751176062313 0 0 0
226 76 1 -1.054 -1.885993019013669 -5.063336071786414 -3.968410371680445 0 0 0
93 31 2 0.527 -5.203327914223427 -3.108349893530635 -5.587608643042107 0 0 1
144 48 2 0.527 -3.3083168555754416 -4.447569174502708 -6.96575898075524 0 0 1
49 17 1 -1.054 -6.135287129524666 -3.203409894197109 -3.7140991207240255 1 0 -1
50 17 2 0.527 -5.823930384131188 -2.298374092967447 -3.6960275352720635 1 0 -1
121 41 1 -1.054 2.9874718104411917 -0.02919089796622565 -5.106447376063613 0 0 1
283 95 1 -1.054 -3.0960287246177423 -2.4151314136499478 -2.590074490840757 1 1 0
51 17 2 0.527 -7.083171457606095 -3.1334448507403634 -3.6001615279441697 1 0 -1
9 3 2 0.527 -0.6798853271555423 -5.813148556108243 -2.714844307028212 -1 0 0
8 3 2 0.527 0.28129941747907683 -5.331460299879052 -1.6488641257332208 -1 0 0
105 35 2 0.527 -0.5019983242904713 -6.400697877913765 -4.85294486741982 0 0 1
285 95 2 0.527 -3.0436671858252637 -2.3749102594581935 -3.5450628307076992 1 1 0
284 95 2 0.527 -3.700938330675265 -1.7120912984601775 -2.3530531220396025 1 1 0
103 35 1 -1.054 0.36513740383541027 -6.504058108310685 -5.245061841811891 0 0 1
19 7 1 -1.054 -4.768075413535836 -5.388566091778292 -3.750728136160831 0 0 0
242 81 2 0.527 -6.129918273386886 -6.782096585638182 -6.255660280355895 1 1 1
7 3 1 -1.054 -0.12433473027271447 -6.124238523018343 -2.000036816701658 -1 0 0
13 5 1 -1.054 -2.2394680931553204 -7.186252351654075 -0.24836235375496152 1 0 0
21 7 2 0.527 -5.231297812243865 -4.553249912225467 -3.8141699856329025 0 0 0
153 51 2 0.527 -0.030382520265771262 -6.742768074341352 -6.9610970536096834 0 1 1
142 48 1 -1.054 -2.4472260368430927 -4.842906203176117 -7.102124532921531 0 0 1
260 87 2 0.527 -1.097299011646502 -2.181678378566186 -5.102009288116842 0 0 1
259 87 1 -1.054 -1.9089372225011783 -2.674715084650818 -5.2225177013251685 0 0 1
20 7 2 0.527 -4.991000707127885 -5.848701740240763 -4.560009705110364 0 0 0
68 23 2 0.527 -5.2619948042615 -0.3975848413750587 -1.774890149042073 0 0 0
92 31 2 0.527 -4.78334576382161 -2.270263798765309 -6.776487562659493 0 0 1
208 70 1 -1.054 -1.0300985786917982 -2.1836536014106995 -0.9936837795682267 0 0 0
67 23 1 -1.054 -5.1908889703008825 -0.4491811296924375 -2.7281180328115537 0 0 0
182 61 2 0.527 -4.631108487855375 -6.006054307300429 -2.1558335190667206 0 1 0
261 87 2 0.527 -2.3134600395531253 -2.285281039559557 -5.9978024942269705 0 0 1
99 33 2 0.527 -7.145681552432095 -0.9382240740557846 -5.937441707797994 1 0 1
210 70 2 0.527 -1.6874800293257275 -2.289777080358669 -1.681393590649808 0 0 0
3 1 2 0.527 3.6974419028782792 -3.286047158356901 -5.904238796891279 0 0 0
59 20 2 0.527 7.0625316047849305 -5.087136363901186 -0.8707003216245903 -1 0 0
181 61 1 -1.054 -4.763370670561159 -6.29414885433944 -1.2525765048197712 0 1 0
309 103 2 0.527 4.158660801479079 -3.0096452960287587 -0.5351278849321277 -1 0 1
23 8 2 0.527 5.7561783969176075 -6.02158416621446 -2.4087433033644654 -2 0 1
265 89 1 -1.054 6.694502938514094 -6.94039452893767 -6.2725558426329036 0 1 1
56 19 2 0.527 -2.7881106799023128 -6.932294676495413 -5.5732366155018855 0 0 0
240 80 2 0.527 5.883978769900952 -0.3559903248244618 -3.8046503137771484 0 0 0
183 61 2 0.527 -3.9680615780351567 -6.781441929901302 -1.0371875508927966 0 1 0
241 81 1 -1.054 -5.17754430897082 -6.703775638774181 -6.312345316263763 1 1 1
159 53 2 0.527 0.808539367957235 -3.2512448268942666 -4.057417004108698 0 0 1
35 12 2 0.527 1.2730524009482105 -0.7882133799391999 -4.556735351779208 0 0 0
2 1 2 0.527 2.947802108941885 -3.561026525189506 -4.617907632865796 0 0 0
157 53 1 -1.054 1.2445011060549005 -4.101470815717285 -3.999027797212132 0 0 1
158 53 2 0.527 0.7275929787275386 -4.675562090354715 -4.564343111529498 0 0 1
1 1 1 -1.054 3.826066824118427 -3.3986481225653438 -4.962359514978355 0 0 0
89 30 2 0.527 4.848603722812006 -6.8876385772545445 -5.5322882290311535 0 0 0
29 10 2 0.527 -0.5891636051351039 -0.617798145497507 -1.6769502499722142 0 0 0
53 18 2 0.527 2.806442908419487 -5.99781570518002 -6.821382292860067 -1 0 1
27 9 2 0.527 5.074100521602319 -4.1606281302873604 -3.9087434682692774 0 0 0
143 48 2 0.527 -1.8654981718429928 -4.359320229521741 -6.515525089394971 0 0 1
192 64 2 0.527 1.4953624888848909 -3.84040787742661 -2.0296912038683326 -1 1 0
60 20 2 0.527 -6.1442101938467495 -5.152809797675304 -0.2182127220880572 0 0 0
88 30 1 -1.054 3.9538418531407666 -7.220453477917828 -5.461607133451068 0 0 0
34 12 1 -1.054 0.5961726991730814 -1.4035781642019298 -4.274736643160526 0 0 0
308 103 2 0.527 5.58611541859318 -2.5225009919841375 -0.6666023610395335 -1 0 1
278 93 2 0.527 4.310369426401894 -1.2340064850404087 -2.1802694331973367 -1 1 1
26 9 2 0.527 5.211975926328361 -3.8485979883840904 -2.4336666717393944 0 0 0
277 93 1 -1.054 4.2232573654056 -0.49217533671060565 -2.7789860430075075 -1 1 1
25 9 1 -1.054 5.491163857965149 -4.471236338518654 -3.1050367316560648 0 0 0
307 103 1 -1.054 4.837541085101209 -2.821115741782836 -1.183156597046139 -1 0 1
190 64 1 -1.054 1.1279617776733941 -3.811543439805644 -1.1462054943691005 -1 1 0
36 12 2 0.527 0.1767720163584947 -0.9739387238271471 -3.529166139427235 0 0 0
22 8 1 -1.054 5.767342754269074 -6.603869091367335 -1.6490246833025353 -2 0 1
191 64 2 0.527 0.3576387134350405 -3.248715013595241 -1.2248869141262633 -1 1 0
209 70 2 0.527 -1.5136367128168464 -2.312129544286833 -0.17756545525267153 0 0 0
101 34 2 0.527 0.4169914131454817 -0.8784335827171192 -7.175198171942991 0 0 2
123 41 2 0.527 3.5631625495381387 -0.3468680315358412 -4.410729219935856 0 0 1
15 5 2 0.527 -1.4444117363885214 -6.789911426873059 -0.6049412187294836 1 0 0
97 33 1 -1.054 -6.730787530449184 -0.8074903810783018 -6.790160630964864 1 0 1
174 58 2 0.527 1.952730773611452 -0.2204869542502257 -0.47398788508179557 0 0 0
238 80 1 -1.054 6.654742115457638 -0.32291586232520686 -4.3713897457279245 0 0 0
189 63 2 0.527 -6.180355653966269 -7.285468245362609 -2.1984013430028053 0 1 0
243 81 2 0.527 -4.951114687674986 -7.124187299497357 -7.142011803875494 1 1 1
267 89 2 0.527 6.197751592878899 -7.032419339304886 -7.0856557804490565 0 1 1
305 102 2 0.527 -2.6350815735328554 -0.32701923282644163 -7.270773392233692 1 0 1
58 20 1 -1.054 -7.034294751786307 -4.828511824159084 -0.08057460687802998 0 0 0
237 79 2 0.527 5.180226083762764 -0.7400077815755681 -7.1277216940308685 0 0 0
154 52 1 -1.054 -2.1852994133758834 -5.74456531752221 2.0044745730006683 0 0 0
268 90 1 -1.054 -4.576318110456247 -1.6234663692305382 4.826766170436694 0 0 0
156 52 2 0.527 -2.8785921761794695 -6.026442661811328 2.6013443822873787 0 0 0
155 52 2 0.527 -1.4045408324365019 -6.208213066949325 2.30747831441374 0 0 0
269 90 2 0.527 -4.727270559905417 -2.552089210153519 5.003488782373858 0 0 0
95 32 2 0.527 -3.956341560022175 -1.4763364304738573 3.2492209414691837 1 0 0
178 60 1 -1.054 0.4537119285340818 -6.877261653990169 3.1609980268214537 0 1 -1
270 90 2 0.527 -4.015947489465562 -1.3303877941944542 5.545408652114808 0 0 0
106 36 1 -1.054 -5.169145309865708 -4.299584808143214 5.626998699950664 1 0 0
293 98 2 0.527 -1.7342127306315218 -3.9284181054032357 5.400414775884937 0 0 1
292 98 1 -1.054 -1.6634179515387162 -3.851844071681023 4.448844876375694 0 0 1
294 98 2 0.527 -2.1767039506601273 -4.585464707400946 4.110175760991964 0 0 1
94 32 1 -1.054 -3.9050788333229853 -1.3569210394737476 2.3008164441698353 1 0 0
85 29 1 -1.054 5.132204144202032 -0.38059380884005733 4.40447845591273 -1 0 -1
179 60 2 0.527 0.7304975854457334 -6.563964195937289 4.022158639501705 0 1 -1
96 32 2 0.527 -3.097599828127912 -1.8034629003232556 2.045988681498211 1 0 0
145 49 1 -1.054 2.05469529333186 -1.5695577423525862 0.7027486132431893 0 -1 0
248 83 2 0.527 -4.572297568588125 -5.567594767572118 4.587596906986026 1 1 0
162 54 2 0.527 -4.941550705772936 -0.5718995483420679 0.8277343435860933 0 0 0
200 67 2 0.527 6.436433488305661 -5.347790015614422 1.4053123976299107 -1 0 -1
160 54 1 -1.054 -5.4477262504144415 -0.3206709084171271 0.055055536050705456 0 0 0
233 78 2 0.527 4.455719259542739 -6.207612359305431 1.5014487504430116 0 1 0
245 82 2 0.527 -6.252034713236663 -0.6455181367613951 4.657553664228469 0 0 0
177 59 2 0.527 -1.8861884273158243 -3.918241641863871 1.8196027071016454 1 0 -1
108 36 2 0.527 -6.123094783766888 -4.309860420314902 5.548033956723171 1 0 0
247 83 1 -1.054 -4.0990375269212285 -6.264715156252069 4.133275183217651 1 1 0
175 59 1 -1.054 -1.6299788661025092 -3.0010124328378813 1.7225925753599673 1 0 -1
86 29 2 0.527 5.189102475469531 -0.25806206512745256 5.352161936799692 -1 0 -1
127 43 1 -1.054 5.93552742637296 -2.237310561845784 6.640466898491643 0 0 0
151 51 1 -1.054 -0.21094582495583403 -6.549719474567054 6.69020960897686 0 1 0
272 91 2 0.527 -7.1418092717795 -2.705306801053837 0.45676621567747233 0 1 0
107 36 2 0.527 -5.006779267483259 -4.255906613071476 6.569383503752767 1 0 0
100 34 1 -1.054 0.48157374676476294 -1.7228067083324934 6.949820936533077 0 0 1
206 69 2 0.527 4.281991135084151 -1.858861150690661 1.9572922360391294 -1 0 -1
296 99 2 0.527 2.788283052335218 -6.198542862219544 5.4212539104478035 0 1 -1
304 102 1 -1.054 -2.4552915234407386 -1.2068674959867787 6.969065226871153 1 0 0
306 102 2 0.527 -1.5107582838003895 -1.2164559912217854 6.813732468057114 1 0 0
152 51 2 0.527 -1.0031381597409421 -6.012639352842385 6.708659468610073 0 1 0
164 55 2 0.527 4.784927853242443 -7.149844226515097 5.1816645775032475 -1 1 0
176 59 2 0.527 -1.0141958196743186 -2.846755922251262 2.4390975835374205 1 0 -1
146 49 2 0.527 1.41423286379396 -1.1004558392666235 1.2376465747904346 0 -1 0
163 55 1 -1.054 5.689800121759153 -7.1504052088171575 5.494019293384478 -1 1 0
273 91 2 0.527 6.232985735780706 -2.232377270763661 1.2547644216194724 -1 1 0
180 60 2 0.527 0.8445669343429563 -6.258865945129537 2.5436027077819103 0 1 -1
185 62 2 0.527 -0.0978500462368217 -2.931585565169664 4.306000190300735 0 0 0
257 86 2 0.527 2.8741469823961827 -3.785009930525873 6.925541047877981 0 0 0
271 91 1 -1.054 6.837133044404266 -1.960996784718037 0.5635896888366254 -1 1 0
297 99 2 0.527 3.147636031199341 -5.637775124980056 4.061612354393891 0 1 -1
184 62 1 -1.054 0.6353369916758433 -2.327369552288837 4.188876054091099 0 0 0
207 69 2 0.527 4.948578911228352 -2.006090502621009 3.3086654728240132 -1 0 -1
147 49 2 0.527 1.5619879740415614 -2.295570952876057 0.3199912574130339 0 -1 0
32 11 2 0.527 3.6491345050954225 -3.4571461464801896 3.2792719634388456 0 0 -1
186 62 2 0.527 0.7322979074019136 -1.8998266144672256 5.039854507227699 0 0 0
295 99 1 -1.054 3.0922287721042947 -6.458331414810829 4.551489482776014 0 1 -1
205 69 1 -1.054 4.866260512400358 -2.43106626189521 2.4548607630482 -1 0 -1
74 25 2 0.527 2.2198373172250845 -5.908142778057145 1.0477215928851704 -1 0 0
282 94 2 0.527 6.202844525123003 -5.243054959738416 5.176646313681576 -1 0 0
33 11 2 0.527 2.20910035516867 -3.3364251351776866 3.7308765350351765 0 0 -1
161 54 2 0.527 -6.299205320625377 -0.7401340651733008 0.1791315920928156 0 0 0
129 43 2 0.527 6.1094434995448195 -3.0031986269258866 6.09317116643684 0 0 0
44 15 2 0.527 0.1092073248062686 -0.7316036665932542 2.8159219151639148 1 -1 -1
258 86 2 0.527 3.6125019176327795 -2.6736119031370693 6.210103036442955 0 0 0
14 5 2 0.527 -2.31457602532151 -6.82177034323842 0.6336096658650199 1 0 0
280 94 1 -1.054 6.633118195565285 -4.416420305493333 4.957795286163166 -1 0 0
301 101 1 -1.054 -5.699004409543915 -6.9101678007986385 2.074166780484041 0 1 0
52 18 1 -1.054 2.396737257414938 -5.529979638754881 7.0222164664059195 -1 0 0
281 94 2 0.527 6.5923644221283295 -4.370176605933586 4.002515308311973 -1 0 0
31 11 1 -1.054 2.92528557438484 -3.9657555733906933 3.6449529633627415 0 0 -1
199 67 1 -1.054 6.057024773107716 -5.714337366253264 2.204095921856509 -1 0 -1
201 67 2 0.527 6.704189960564949 -6.351472834807489 2.506744233583274 -1 0 -1
128 43 2 0.527 6.796215677641709 -1.8428126505371312 6.781699860299583 0 0 0
73 25 1 -1.054 1.3372807810630745 -5.538310533254046 1.0738140257629292 -1 0 0
43 15 1 -1.054 0.28158835777875435 -0.07313998454358206 2.142817070510916 1 -1 -1
303 101 2 0.527 -5.241226784394107 -6.774732749147806 1.2444318465932964 0 1 0
232 78 1 -1.054 3.856114222025396 -6.407658513880868 0.7825480963948879 0 1 0
256 86 1 -1.054 2.989777261378399 -2.8347726949531875 6.919049698109215 0 0 0
75 25 2 0.527 1.2973736163838252 -4.958640320938551 0.31305708086640216 -1 0 0
302 101 2 0.527 -5.026701006006677 -6.780448302205846 2.7431531262024533 0 1 0
249 83 2 0.527 -4.168467357706763 -7.021102586262238 4.715872560980318 1 1 0
246 82 2 0.527 6.888871971355861 -0.16110488447672644 4.550868419045211 -1 0 0
54 18 2 0.527 1.5490418215344581 -5.959657739266309 6.907535019389356 -1 0 0
102 34 2 0.527 1.3503084399148877 -2.0511373480723263 7.181889332423242 0 0 1
234 78 2 0.527 4.4256603885464445 -6.687056719560927 0.06567286784202864 0 1 0
118 40 1 -1.054 -2.726515751617419 1.485576791468696 -1.3995108931798752 1 0 0
82 28 1 -1.054 -4.1944470018497615 3.167782564359011 -3.1042670013633966 0 -1 0
41 14 2 0.527 -4.406784208609206 2.693569325144961 -0.0411956924625958 0 0 -1
139 47 1 -1.054 -4.701788896915441 4.586081063818038 -5.438748472499459 1 0 0
57 19 2 0.527 -3.3455183813758693 6.345831621221451 -5.017289097642836 0 -1 0
115 39 1 -1.054 4.153303645443482 4.697931014955441 -6.484243532422317 0 -1 0
134 45 2 0.527 -3.6101951034732194 1.405051407091375 -6.182382563172535 0 0 1
84 28 2 0.527 -4.158251176786326 3.669257298872224 -3.9188696097011184 0 -1 0
55 19 1 -1.054 -2.5564877006010773 6.887770971723206 -5.027089606171142 0 -1 0
211 71 1 -1.054 -6.719921038463354 2.008097080889283 -3.2451200090014467 0 0 0
141 47 2 0.527 -5.589124791551047 4.940034527657747 -5.377799239108933 1 0 0
83 28 2 0.527 -3.702889187537049 3.6960072543902003 -2.475208763997789 0 -1 0
213 71 2 0.527 -5.885651258530089 2.4511394651600016 -3.089993042531482 0 0 0
140 47 2 0.527 -4.677333044831323 4.1444931618281275 -6.2877250058213585 1 0 0
212 71 2 0.527 7.189003122153058 2.6791339691715477 -3.0800416452726633 -1 0 0
16 6 1 -1.054 3.6498132646020442 6.62276708176531 -2.8747614464061506 0 -1 0
254 85 2 0.527 -5.887192372914824 2.0422066711361238 -5.715080851568898 0 0 0
104 35 2 0.527 0.6942236845280512 7.243196627128138 -4.886004454459742 0 -1 1
48 16 2 0.527 -2.9530622524903816 5.570130540013182 -1.0294301778705286 -1 -1 0
289 97 1 -1.054 0.4557918583624758 3.558243587696869 -2.945512195108453 -1 0 0
71 24 2 0.527 -0.5899275166471956 1.1926015333496975 -6.548863587004568 0 0 1
135 45 2 0.527 -2.3018346107730414 1.2754864211505295 -5.431628883464982 0 0 1
214 72 1 -1.054 7.164106336647902 5.236955193008735 -5.080436807162009 0 0 0
133 45 1 -1.054 -2.9286692822977427 0.7733555825336245 -5.952500447872052 0 0 1
222 74 2 0.527 -0.7931801224756407 1.2411872053354172 -3.8959687197642 0 1 0
119 40 2 0.527 -3.069930471143641 1.8219451427749318 -2.227329919081437 1 0 0
290 97 2 0.527 0.2442174382575617 3.666298645952078 -2.0181926378403494 -1 0 0
187 63 1 -1.054 -6.542264063748506 6.464605944750692 -2.5313898945696875 0 0 0
224 75 2 0.527 1.9634845715368998 6.435930623477232 -2.872531600467595 1 0 -1
130 44 1 -1.054 1.0662919962818078 6.111491678713349 -0.16982245192615864 0 0 0
188 63 2 0.527 -6.155264638129227 5.788681805231707 -1.9748652139559795 0 0 0
253 85 1 -1.054 -5.702693937193353 1.7217306035626683 -6.598041377322967 0 0 0
225 75 2 0.527 0.5403446606730178 6.923614697434732 -2.7020522598834855 1 0 -1
18 6 2 0.527 3.702002400956437 6.862062256587804 -3.8001662753820424 0 -1 0
117 39 2 0.527 3.341641470927173 4.5872676835766315 -6.979541529621665 0 -1 0
220 74 1 -1.054 -0.8742131736333034 1.8643134149826173 -4.618125650792271 0 1 0
109 37 1 -1.054 4.7942280516063205 2.365140734017772 -4.953941527756244 0 0 0
223 75 1 -1.054 1.0523387159796807 6.172362944327163 -3.001797593417253 1 0 -1
215 72 2 0.527 6.679759464335711 4.48982314561177 -4.7289179069645435 0 0 0
47 16 2 0.527 -2.5400961537141242 4.206341169570126 -0.5178051675592874 -1 -1 0
69 23 2 0.527 -5.657405566329096 0.3239982926354079 -3.045790862528527 0 0 0
11 4 2 0.527 5.165793392317988 3.732146608359492 -2.4012711338623003 -1 -1 0
111 37 2 0.527 4.2798933022636545 2.8383188114366584 -4.299783839895407 0 0 0
132 44 2 0.527 0.9886874950333615 6.283235357261002 -1.1083545190426678 0 0 0
150 50 2 0.527 -1.9190034235212154 5.526000498090148 -6.287420668454369 0 -1 0
236 79 2 0.527 5.500084529521085 0.7351448723633647 -7.245357212769213 0 0 0
46 16 1 -1.054 -3.219039946843374 4.650565119664834 -1.0258050261947185 -1 -1 0
10 4 1 -1.054 6.043105392800684 3.9249232776321685 -2.7322158999794546 -1 -1 0
12 4 2 0.527 6.477187235774486 4.380088488920877 -2.010578178719534 -1 -1 0
198 66 2 0.527 3.248617667810511 4.577201595850895 -2.9459241682082737 0 0 0
216 72 2 0.527 7.2536966174057005 5.83538036281383 -4.338665270995117 0 0 0
196 66 1 -1.054 3.2934259739509324 3.644443485659427 -2.735421654904142 0 0 0
229 77 1 -1.054 -6.830123790258932 4.490873388723977 -0.4858873332594662 1 -1 0
239 80 2 0.527 7.002202791596679 0.5611270486634465 -4.252640349868514 0 0 0
116 39 2 0.527 4.3558122182269186 3.821628586459803 -6.156451822951999 0 -1 0
30 10 2 0.527 0.5512467027925858 0.3572586879196251 -1.8793239619399298 0 0 0
221 74 2 0.527 -0.398252136893543 2.639742332558707 -4.32058637087838 0 1 0
110 37 2 0.527 4.407229215580069 1.4898735509314767 -4.976322077314535 0 0 0
17 6 2 0.527 4.270951726957903 7.2073889671338085 -2.4402900597010273 0 -1 0
120 40 2 0.527 -2.0068244214098243 0.9084233233412453 -1.6550510939034782 1 0 0
148 50 1 -1.054 -1.5176620709881732 5.000685422628014 -6.979757542601447 0 -1 0
266 89 2 0.527 6.764947329275416 6.739063328887727 -5.932088718307741 0 0 1
28 10 1 -1.054 -0.3640562199057813 0.20367631750461435 -2.113836225261858 0 0 0
5 2 2 0.527 3.105261583247276 3.307604771750273 -0.5573762503013242 -1 0 0
291 97 2 0.527 0.5258244364221207 4.451899231144828 -3.2814184751239477 -1 0 0
197 66 2 0.527 2.399650839587836 3.326349300725407 -2.8632514098608812 0 0 0
173 58 2 0.527 2.1769382485071764 1.2681790140394549 -0.6347071616142346 0 0 0
90 30 2 0.527 3.994884856604501 6.470769031073384 -5.835826699924008 0 -1 0
172 58 1 -1.054 2.0713308353730033 0.4599906007406851 -1.1367461740577314 0 0 0
98 33 2 0.527 -6.324666368700405 0.05722818216445624 -6.72942180430779 1 0 1
255 85 2 0.527 -6.466096135177297 1.9836234285124652 -7.112816164819846 0 0 0
231 77 2 0.527 -6.279280698185213 3.7496221860725756 -0.2339314741475933 1 -1 0
149 50 2 0.527 -2.1384945438388883 4.2878240313843365 -7.13060758750293 0 -1 0
166 56 1 -1.054 -0.4664182965193744 3.875698419774902 -0.3642892765546426 0 0 0
24 8 2 0.527 6.3702559847164695 7.26533503535428 -1.8936413866372863 -2 -1 1
279 93 2 0.527 3.6405550134831204 0.11612161200264648 -2.324237465529005 -1 1 1
286 96 1 -1.054 -2.097392965407767 1.1432524998877502 1.275800085602687 1 1 0
287 96 2 0.527 -2.2589564001866966 1.5281042900393187 0.414318768552123 1 1 0
250 84 1 -1.054 2.7895401765112 2.098055061541694 6.005493166902666 0 0 -1
136 46 1 -1.054 -4.631795788372667 1.9475163846488597 4.1963049365190175 0 -1 0
137 46 2 0.527 -4.986971003001686 2.6684386977430323 3.6762268532361118 0 -1 0
170 57 2 0.527 0.676966020794401 4.504787472183971 7.111512733301782 0 0 -1
76 26 1 -1.054 5.306279641341614 3.672881913894142 4.387979505860893 -1 -1 0
138 46 2 0.527 -5.325834910269967 1.2882235463279157 4.198142596856893 0 -1 0
203 68 2 0.527 6.802594642807995 4.740428195986323 4.258272382530582 0 0 -1
202 68 1 -1.054 -7.14931312725629 5.469316467083742 4.221264493587461 1 0 -1
262 88 1 -1.054 -4.9039482593997 6.0255320272533615 5.965599929719363 1 0 0
80 27 2 0.527 -5.430380691455546 3.7065830802013116 1.8303950378308604 0 0 0
288 96 2 0.527 -2.843219973202782 0.5613492276630314 1.4224092494039988 1 1 0
81 27 2 0.527 -4.290189473239753 4.504567065360701 2.4265374015976464 0 0 0
79 27 1 -1.054 -5.196402195590992 4.242107884269905 2.588564915828422 0 0 0
204 68 2 0.527 -6.521316533723708 5.216452880404614 3.5444823705600763 1 0 -1
64 22 1 -1.054 -2.622989089304995 5.375629361968557 2.677441878797315 1 -1 -1
218 73 2 0.527 -2.8170808600562802 1.8883732688198895 4.589579807327689 0 0 -1
217 73 1 -1.054 -1.9737027523341748 1.8643083074562208 5.041790651254318 0 0 -1
300 100 2 0.527 6.422329437657452 2.7157436012833456 5.745456399425257 0 0 0
66 22 2 0.527 -2.2532334002643113 5.60732753663235 3.529472807712483 1 -1 -1
195 65 2 0.527 -0.9473921426836673 6.833820739379344 5.029549331298827 0 0 -1
230 77 2 0.527 -6.688686993891372 5.1401394893875585 0.2031755416410279 1 -1 0
299 100 2 0.527 7.098436972480775 1.3614259050186286 5.7151739674040405 0 0 0
167 56 2 0.527 -0.28477191128412116 3.206451574032063 0.2956164295303241 0 0 0
298 100 1 -1.054 6.805246635799773 2.0479202686022164 6.314443876992969 0 0 0
263 88 2 0.527 -4.429208692551326 5.311143491349466 5.5405924709272485 1 0 0
219 73 2 0.527 -1.3691368654221368 2.3067394683340465 4.4458728064424315 0 0 -1
193 65 1 -1.054 -1.4894810365980176 6.048469711996291 4.9539071309126195 0 0 -1
264 88 2 0.527 -5.744232205187734 6.060739258936505 5.508386427540226 1 0 0
244 82 1 -1.054 -6.77947957257114 0.15170250998930612 4.606515759637317 0 0 0
276 92 2 0.527 -0.6160873406252243 4.4484545774900885 4.0718866189192555 0 0 0
70 24 1 -1.054 -0.21363961071846305 0.9644681954633247 7.172359580443081 0 0 0
65 22 2 0.527 -1.9473816455642368 4.841217199438293 2.259926647666359 1 -1 -1
235 79 1 -1.054 4.774670212022847 0.11203898480070418 7.282686988480926 0 0 -1
194 65 2 0.527 -1.4663397008965626 5.655890193451566 5.826667078268852 0 0 -1
165 55 2 0.527 6.106996081616701 6.701711833255385 5.0196727116539135 -1 0 0
42 14 2 0.527 -5.258990985121434 1.474626058645284 0.24190776156777183 0 0 -1
40 14 1 -1.054 -5.16523079354671 2.4009745771320175 0.4642857517917758 0 0 -1
4 2 1 -1.054 2.5814540878193215 2.8021851082799367 0.06434446552288531 -1 0 0
38 13 2 0.527 -3.1492990672703627 2.631772544174596 6.33625469912663 1 0 -1
124 42 1 -1.054 1.8956264410043984 4.332469231538565 2.283880133656697 0 0 1
131 44 2 0.527 1.1983627462354365 6.974837571175613 0.2220362714885784 0 0 0
78 26 2 0.527 5.056575986494699 3.262833251426211 3.5598079841988257 -1 -1 0
251 84 2 0.527 2.1235190217333004 1.5317172572347824 6.395413560550986 0 0 -1
171 57 2 0.527 1.8740704157700963 3.669391492489523 6.70992263688115 0 0 -1
113 38 2 0.527 2.565648820352023 1.7606807412670653 3.611699257300379 0 0 1
87 29 2 0.527 4.425416480959821 0.20328887494246395 4.128986569439173 -1 0 -1
77 26 2 0.527 4.68016425944345 4.388280754328368 4.499972044530344 -1 -1 0
252 84 2 0.527 3.5937939923855096 1.883376073933957 6.478199092970116 0 0 -1
45 15 2 0.527 -0.5729399938022821 0.3216943680074751 1.9688897373377836 1 -1 -1
125 42 2 0.527 2.376707445195433 4.80071961828341 2.9662740269930685 0 0 1
61 21 1 -1.054 3.0664516467741096 5.3986976491259435 4.430649843778073 0 -1 -1
72 24 2 0.527 -0.8762469380325975 1.2343754458399951 6.536392874695385 0 0 0
126 42 2 0.527 1.784161599676648 4.976112346130615 1.5841247066495887 0 0 1
112 38 1 -1.054 3.0151978369328534 1.279176069564337 2.9171341794158954 0 0 1
274 92 1 -1.054 -0.31094010478455925 3.624860093090658 3.691179779727608 0 0 0
169 57 1 -1.054 1.6111563442244838 4.56735096418091 6.912168373779969 0 0 -1
275 92 2 0.527 0.5601340015809129 3.826667147345783 3.349323083317439 0 0 0
6 2 2 0.527 2.6743768406047552 3.2713466796477855 0.8935687866910405 -1 0 0
37 13 1 -1.054 -3.5828077704859305 3.1511723379477443 7.013497073368341 1 0 -1
114 38 2 0.527 2.312973300278963 0.8440233597302784 2.4335155152410186 0 0 1
63 21 2 0.527 2.9746460270189212 6.345204287134243 4.320840662770544 0 -1 -1
62 21 2 0.527 2.514315815189444 5.189836777891945 5.184230097275107 0 -1 -1
39 13 2 0.527 -4.457745751705818 2.769496823579801 7.085403723861098 1 0 -1
168 56 2 0.527 -0.21029769495903405 4.698850791168257 0.051864393685611354 0 0 0

Velocities

122 -0.004486420820225018 -0.0003275244310959762 -7.892961305950127e-05
91 -0.003702570074147146 -0.004556861382470075 -0.008707020952050597
228 0.014938206738863168 -0.01535495296031089 0.021275490038047646
227 -0.019692164275351635 0.009574565924837863 0.014959183740841028
226 0.005523957860318125 -0.0003855429964095933 -0.00104207903513041
93 0.00961585795022042 -0.03025126162240131 0.0007912882855015406
144 0.005617275595728973 -0.00011019499309523469 0.004905331780429271
49 0.005036623709213194 0.0012744836288296226 0.0021646184115552444
50 0.01477959080080143 -0.0016915782618741155 -0.010826041952326403
121 0.002974296142669896 0.0026572191509401043 0.003174849293479835
283 0.008739736118985066 -0.003436178187608854 0.0031252911613135273
51 0.004939171891888311 0.013656682745150443 -0.0059919369563680045
9 -0.002686907302719609 -0.0033236380916493026 -0.010921448927534197
8 -0.029802689889249053 0.006238364443613584 0.009332090169589514
105 -0.002780417745722708 -0.00936496352677692 -0.004507025087956516
285 0.014876227690149206 -0.02335289003498554 0.002749138069853412
284 -0.009817720047233752 -0.012902415468012431 -0.01695925855009773
103 0.0010729559462161092 0.002916749151385422 0.0009327657458902966
19 0.004081470808300849 -0.006560621042380316 0.005135360709703065
242 -0.0018507747504476512 -0.0030135554774634132 -0.010637970241895585
7 -0.008211819109117433 0.0013305932821746863 -0.004594247701768911
13 -0.00042933568758114055 -0.002220804171339671 0.0031373366464805754
21 0.0159606764540504 -0.0020108284761202757 -0.024965883129644692
153 -0.009404805496371835 -0.010799218719382364 -0.0014630298117869907
142 0.00408789487623935 -0.0023858606441397737 0.002084052546208363
260 0.003968227444552333 -0.008081630468833197 -0.002379943727340662
259 0.000389266179887147 -0.0026422834128480553 -0.00029630732654271284
20 0.03396719579050798 -0.013683951877057269 0.0009851747703120946
68 -0.0023655407952373445 -0.015916939348492837 0.0011849746628101116
92 -0.035254269932616294 -0.0021562027251078274 0.004912847052737225
208 -0.0038559798682486464 0.0033675789590298455 0.0020268561811007052
67 -0.0022018263277115376 0.004779123364345387 0.00012574100839978086
182 0.0028314520677435433 0.00257069722497258 0.0017639154131457303
261 0.004465161926373291 -0.004554437909004604 -0.0033606945982080517
99 0.02180880595215209 -0.016718887051851233 0.002018559578322544
210 -0.012220480988345115 0.029668952950226892 0.0058966151996157805
3 -0.011207847959930281 -0.019821221431671688 -0.00034756576551465425
59 -0.006416872246819161 -0.0008415254481047527 0.0021549995503526266
181 0.002939243859103318 -0.0015893031001295809 0.00038957715521049745
309 0.0003684184393547284 0.002670784794522971 0.008958716998276951
23 -0.016377396100843204 -0.02078120987493829 -0.01750329835809537
265 -0.003209726534110259 0.005875638435205159 -0.005745021243570713
56 -0.00219637092731366 -0.005616767917914711 -0.004912563685881815
240 0.008291824456627666 0.008988262083813842 -0.0005696428570653216
183 0.0017837516742930863 -0.004896053671598364 -0.0028594658342087445
241 -0.0014212095243088057 0.0005559713480355752 0.0022473375407609884
159 0.019296091845460765 0.014877290459935966 0.004271753478082531
35 -0.0014697412481828058 0.007025683496968305 0.0018793973494961279
2 0.007310559279997471 -0.01206925236096675 0.012074890925770326
157 -0.006555749201922061 0.0009817838112241614 -0.004993102415721884
158 -0.025684620487134227 0.02212537118663029 -0.00910098713162274
1 0.0008444092064059701 -0.0029280416063895863 6.724258320490232e-05
89 0.0075228280035110765 -0.019369093146905436 -0.011792243269609412
29 -0.01318852937039855 0.0018579370159903426 0.014558458519303962
53 -0.003690152710260312 0.019119027342923894 0.011610789937411214
27 -0.0007626486888625444 -0.004736444977901149 -0.0037063439218876755
143 0.010882994767824752 0.008920636241650673 -0.014087938510408807
192 -0.004057161911007746 -0.004522951142632355 0.007299392370091198
60 -0.002479681591005942 -0.004237522042484032 -0.0066266542177708864
88 0.0016119338701160507 -0.0010546474560761568 -0.0006470190612517671
34 0.00022541902215030698 0.002178972424522847 -0.004623653729949617
308 0.004521061061436525 -0.014077147562096113 -0.0076424619669292
278 -0.012343133258540062 0.0037367469314994566 0.0006645594564956059
26 -0.014063561728712806 -0.002901296224196308 -0.0028601776987633647
277 -0.005723835749594196 0.0017161080793648292 -0.002787944321008164
25 0.0026159905122858217 0.003922249399870923 -0.002178428145614544
307 -0.005053761207496173 -0.005060804259476713 0.0010673362139348474
190 -0.0016724457922143142 0.006983560000759622 0.007875589813944069
36 -0.011693352023193694 0.00035623280893812943 -0.010267630826440942
22 -0.0018150103061057488 0.0025824366995146255 0.00045752904207672245
191 -0.0038740647766814765 0.0030915002089825197 0.001882374537176484
209 -7.465573933586878e-08 0.0016972112505963608 0.003963621703323239
101 -0.004243737942742981 -0.01464795468683951 0.02121646131400299
123 -0.0024857286113676947 -0.016465735568658414 -0.0011854834496161741
15 -0.022314108710752272 0.03656434444062034 -0.002427772652630717
97 0.0028677499520064634 -0.00012139435669183981 -0.004724480089823124
174 0.004232901712442997 0.0066858822386057165 0.006031904803187892