LAMMPS data file via write_data, version 29 Sep 2021, timestep = 50000

900 atoms
2 atom types
600 bonds
1 bond types
300 angles
1 angle types

-10.370135060496624 10.370135060496624 xlo xhi
-10.370135060496624 10.370135060496624 ylo yhi
-10.370135060496624 10.370135060496624 zlo zhi

Masses

1 15.9994
2 1.008

Pair Coeffs # lj/cut/tip4p/long

1 0.18481 3.165
2 0 0

Bond Coeffs # harmonic

1 0 0.9572

Angle Coeffs # harmonic

1 0 104.52

Atoms # full

888 296 2 0.527 -6.446716318091532 -2.6562272140155034 -8.069537376968782 0 0 1
887 296 2 0.527 -5.341878762865297 -3.206430967521821 -8.946176367116529 0 0 1
184 62 1 -1.054 -5.158309584255683 -4.414522092468366 -1.3373256435205612 0 1 0
297 99 2 0.527 -7.952371194814274 -3.1154793340428757 -2.00288689966494 0 -1 0
132 44 2 0.527 -8.236022509650372 -6.460185081551758 -7.253656211439351 1 0 0
174 58 2 0.527 -4.879885917898325 -2.3582093858405813 -3.6715742589216847 0 0 0
91 31 1 -1.054 -0.324548135148806 -0.9223326110336512 -5.891787130987935 0 0 0
568 190 1 -1.054 -8.56962815110476 -1.7475501240147846 -7.348036407324553 1 -1 0
412 138 1 -1.054 -4.432174619882031 -1.5257428768364338 -10.177462405512646 1 1 0
249 83 2 0.527 -1.533235713016511 -7.675017774445922 -9.949586488000207 0 1 0
130 44 1 -1.054 -8.92006329354218 -6.024735751641416 -6.745030363018642 1 0 0
8 3 2 0.527 -7.127067058672903 -8.65496661575761 -2.365572445703439 0 0 0
296 99 2 0.527 -6.68470025127019 -2.799503398572318 -1.2379983637129648 0 -1 0
592 198 1 -1.054 -7.852233787808014 -4.249021405471392 -4.991136865277201 -1 0 0
474 158 2 0.527 -8.18428185505141 -0.18135271320782742 -7.424097859752644 0 0 0
186 62 2 0.527 -4.844221076972539 -3.732390733418983 -1.9308522320664672 0 1 0
185 62 2 0.527 -5.57204427510699 -5.059701787535071 -1.9107321600928042 0 1 0
539 180 2 0.527 -0.1208690744592289 -8.945550173666904 -3.069809493922346 1 1 0
432 144 2 0.527 -9.136601790613385 -0.32458530860480295 -3.1545185064464 1 0 0
324 108 2 0.527 -2.8264878844025336 -9.286763525999634 -3.119620889480271 0 0 -1
158 53 2 0.527 -6.816769116524855 -5.320079913662395 -8.630445993851195 0 0 0
886 296 1 -1.054 -6.193893799415762 -3.4307116215610476 -8.572014006488892 0 0 1
706 236 1 -1.054 -2.8344300983305137 -4.875903106150311 -7.656450202299494 0 0 1
88 30 1 -1.054 -6.640025006957469 -9.149335058275982 -5.751776720995859 1 0 0
564 188 2 0.527 -8.102998861436511 -7.903281544881473 -0.7507585104416918 1 1 0
89 30 2 0.527 -6.266797050935577 -9.901783258203217 -6.210853365517465 1 0 0
545 182 2 0.527 -8.476022430062685 -7.83637699112035 -3.949866842465714 1 1 0
360 120 2 0.527 -1.4526341487559264 -9.192066831900409 -0.2218543139493523 0 0 -1
569 190 2 0.527 -9.177387446662047 -2.065009426739751 -8.015925611140826 1 -1 0
9 3 2 0.527 -5.951603468643006 -9.569434934255355 -2.0936951336593435 0 0 0
157 53 1 -1.054 -6.871044880675953 -6.273200973774685 -8.56085055461611 0 0 0
176 59 2 0.527 -7.178663466933278 -3.9014016936628373 -10.19844002264732 0 0 0
546 182 2 0.527 -8.231989466197184 -8.532652539385571 -5.27181050823997 1 1 0
233 78 2 0.527 -3.7992264472848687 -10.002788807964237 -0.6022217040243145 0 -1 0
431 144 2 0.527 -7.939323343417861 -1.1302172588112231 -2.69695246464489 1 0 0
840 280 2 0.527 -6.534248369986157 -2.8173230656723858 -5.0566439472023905 0 0 1
838 280 1 -1.054 -5.855349002514374 -2.1931324417038542 -5.312982767759688 0 0 1
413 138 2 0.527 -3.8933892788714415 -1.1650187591355525 -9.473319811870489 1 1 0
295 99 1 -1.054 -7.518532610765651 -2.4175815503985802 -1.5120195158014607 0 -1 0
107 36 2 0.527 -9.487666699163347 -3.522814771146871 -9.94842998759528 0 0 0
303 101 2 0.527 -0.6954733832762905 -1.3585146222326614 -1.3300245818933512 -1 0 0
864 288 2 0.527 -0.17776977901378999 -5.596850306516721 -9.264764738363795 1 0 1
173 58 2 0.527 -4.563470800091777 -1.3777598159237439 -2.5623024993926453 0 0 0
594 198 2 0.527 -7.819713694431575 -4.811966965115653 -5.7646120178560425 -1 0 0
657 219 2 0.527 -3.9952719053468444 -6.474658125106577 -7.602244741700204 0 0 1
778 260 1 -1.054 -0.01639931823938312 -4.399876948782986 -1.1832004445423063 0 0 0
172 58 1 -1.054 -4.336932638345971 -2.247721895182284 -2.8910486588444826 0 0 0
59 20 2 0.527 -2.751666435522986 -2.8086515975927524 -5.553583417379536 0 0 0
563 188 2 0.527 -9.348317252416237 -8.624246672674573 -1.2211607526059503 1 1 0
104 35 2 0.527 -0.7803772144882064 -10.311634399691847 -6.362294997142282 0 1 -1
322 108 1 -1.054 -2.3306247216539226 -8.81902828772249 -3.791611070681479 0 0 -1
301 101 1 -1.054 -1.3192038595395985 -2.0434553579681616 -1.0890980694879122 -1 0 0
379 127 1 -1.054 -1.8371455279388833 -1.250631979553832 -8.594233683646152 0 0 0
106 36 1 -1.054 -10.167605930823981 -3.333715713439126 -9.301784307158412 0 0 0
105 35 2 0.527 -1.7914719318196877 -10.223502883325127 -5.238992810630844 0 1 -1
587 196 2 0.527 -5.800508376641334 -9.009782605623647 -9.991988212513247 1 1 0
358 120 1 -1.054 -0.5623659380912347 -8.847933174447526 -0.14958438511407834 0 0 -1
230 77 2 0.527 -4.500295616268503 -6.9750258435048185 -5.215744571921215 1 0 0
302 101 2 0.527 -0.7837448741997726 -2.830129001877059 -0.9858625758841519 -1 0 0
570 190 2 0.527 -8.854689051280006 -2.1761036712294715 -6.540998104582453 1 -1 0
123 41 2 0.527 -2.9213804775781513 -9.885412199821781 -7.222156007099562 0 0 0
709 237 1 -1.054 -6.882710320268635 -5.885794219614173 -3.056467023764559 1 0 1
381 127 2 0.527 -2.0293879522446314 -1.6120028719252453 -7.728971173855603 0 0 0
229 77 1 -1.054 -4.223466195777383 -6.860306864517533 -4.3066609448734425 1 0 0
655 219 1 -1.054 -4.591594288460701 -7.122250727162301 -7.226415681055617 0 0 1
323 108 2 0.527 -2.889818201677281 -8.080233654995482 -4.031848581737514 0 0 -1
839 280 2 0.527 -6.229206367143217 -1.3354666775718282 -5.110823597949526 0 0 1
593 198 2 0.527 -8.747440324151851 -3.9103947019804917 -4.978241304709156 -1 0 0
586 196 1 -1.054 -6.2063478121372055 -9.241999549632819 -9.15676458288133 1 1 0
562 188 1 -1.054 -8.634493414486993 -8.066285019566493 -1.5299706552578645 1 1 0
711 237 2 0.527 -7.209865365085301 -5.329164787396294 -3.7631200304823347 1 0 1
703 235 1 -1.054 -1.4119809399481973 -2.656491791335605 -3.859767105092283 0 0 0
60 20 2 0.527 -4.10743331934512 -2.2863922337092504 -5.979046218846142 0 0 0
209 70 2 0.527 -1.1485987425419548 -5.720281435886359 -3.5497661628316104 1 1 0
780 260 2 0.527 -0.5409685613067765 -4.849915595747821 -1.8454099773841453 0 0 0
159 53 2 0.527 -6.173404640160475 -6.509300341384131 -7.949472934848679 0 0 0
704 235 2 0.527 -2.0242852090381422 -2.037572945014025 -3.4619593440775507 0 0 0
707 236 2 0.527 -2.163069659822529 -4.510610492308838 -8.232701630820483 0 0 1
544 182 1 -1.054 -8.861522634688939 -7.974758173621676 -4.81500777820416 1 1 0
380 127 2 0.527 -1.3275524992350718 -1.9328429518423373 -9.03141689599541 0 0 0
708 236 2 0.527 -3.325188368387587 -4.114586714080207 -7.346962709036303 0 0 1
58 20 1 -1.054 -3.24659932275722 -2.5256658911636114 -6.322468826151556 0 0 0
122 41 2 0.527 -3.841192024062191 -10.2721194086473 -8.360701511705411 0 0 0
430 144 1 -1.054 -8.23800814966274 -0.23182618435744118 -2.838051308532348 1 0 0
7 3 1 -1.054 -6.581648291928563 -9.328036603880909 -2.7726631414654426 0 0 0
90 30 2 0.527 -6.327874654429036 -9.238587992752008 -4.851321779977141 1 0 0
131 44 2 0.527 -9.122025258943326 -6.638920225349604 -6.039184988839249 1 0 0
210 70 2 0.527 -2.6238814597241715 -6.007387863646007 -3.368116669290962 1 1 0
231 77 2 0.527 -5.028527713256512 -6.644314943616569 -3.8360746211056798 1 0 0
612 204 2 0.527 -0.10910940573633887 -3.603479229269568 -9.70231253405622 0 0 0
611 204 2 0.527 -1.5043287685924351 -4.122210775414115 -9.978294551190585 0 0 0
656 219 2 0.527 -4.278977050775651 -7.961264321071413 -7.564876800464924 0 0 1
232 78 1 -1.054 -2.9914475168084795 -10.059317838915268 -1.1126401033144724 0 -1 0
588 196 2 0.527 -6.50383356269567 -8.40753459500014 -8.794274056797015 1 1 0
121 41 1 -1.054 -3.2927484344767173 -9.555925629007715 -8.040536915969174 0 0 0
610 204 1 -1.054 -0.8627521755670173 -4.012082154119483 -9.276525707658404 0 0 0
248 83 2 0.527 -2.5806375560470727 -8.681368752085712 -9.522860081181255 0 1 0
710 237 2 0.527 -7.67093381511035 -6.2476548989130345 -2.65151045924787 1 0 1
208 70 1 -1.054 -1.9244996815893174 -5.423742271865593 -3.074090272460979 1 1 0
705 235 2 0.527 -1.4979859821535353 -3.4511896764524153 -3.333187167346475 0 0 0
359 120 2 0.527 -0.162749893834075 -9.035872953045446 -0.9988280378678649 0 0 -1
26 9 2 0.527 -7.9195902695568225 -10.32728347673717 -9.077058925355526 1 0 0
716 239 2 0.527 -4.320168363289281 -5.536798400278755 -0.24573391285801804 0 0 0
247 83 1 -1.054 -2.1865633493441834 -8.281557515884693 -10.298157360231103 0 1 0
93 31 2 0.527 -0.7291036308470034 -1.6701133122489864 -5.4520297361514265 0 0 0
860 287 2 0.527 -9.988662308191001 -0.7959373189786412 -0.42400046779324363 1 0 1
494 165 2 0.527 -7.918027177012764 -7.513272300067539 -10.208539755365264 0 1 1
201 67 2 0.527 -0.13285118418216335 -4.314305802794216 -6.492238324166322 0 0 0
862 288 1 -1.054 -0.005569455401072787 -6.529530082778512 -9.393934801446552 1 0 1
283 95 1 -1.054 -10.19902796393396 -2.864422206976765 -4.850605361096532 0 -1 0
837 279 2 0.527 -10.214211442874968 -8.616072358911325 -3.9266582132800245 0 1 1
770 257 2 0.527 -2.9778707287781296 -2.383353114509757 -0.296275933435286 0 0 0
414 138 2 0.527 -5.241204363730583 -1.0151345903937905 -10.146231161846119 1 1 0
150 50 2 0.527 -6.79329839166051 -2.645968890491166 6.494911688036824 -1 0 0
238 80 1 -1.054 -5.44582520605892 -5.19425715553502 8.53119932682043 0 0 -1
768 256 2 0.527 -6.636537790504063 -0.5380965290869835 8.466422197577002 0 0 0
143 48 2 0.527 -8.354918472736951 -3.841724468726615 1.7027033767340676 1 0 -1
202 68 1 -1.054 -5.071243484554309 -1.0001727432573997 2.012244596290264 0 0 0
203 68 2 0.527 -4.666631803766535 -0.8813901998836133 2.871551630758036 0 0 0
242 81 2 0.527 -1.2996736645137545 -9.506627551186146 4.040705923030432 0 1 -1
213 71 2 0.527 -3.5571261952447975 -2.068042207208233 8.63188522893733 0 -1 -1
99 33 2 0.527 -3.739102210929482 -1.1958113918544964 4.5755650559710475 0 1 -1
820 274 1 -1.054 -6.135114709822457 -6.812854888719967 4.429153617673117 1 0 0
638 213 2 0.527 -8.964962475710083 -5.872670890751103 7.435256861193059 0 0 -1
281 94 2 0.527 -0.870954454884771 -6.921271397785112 0.3778640454659694 1 0 0
800 267 2 0.527 -0.06232559638387869 -6.673834404093226 4.760501326648994 0 0 0
212 71 2 0.527 -3.106700233884405 -2.665653911536694 7.315881513812494 0 -1 -1
383 128 2 0.527 -0.9218336633273516 -3.002424812920813 4.230871410535874 0 0 -1
315 105 2 0.527 -8.558360424998853 -7.015468924253874 2.229447824450407 0 1 -1
280 94 1 -1.054 -1.2634118337804985 -6.092150549930567 0.651296020688406 1 0 0
343 115 1 -1.054 -5.515454566173236 -10.073571668552697 0.13240892712780727 0 0 0
211 71 1 -1.054 -3.3279474498185895 -1.8328962305091014 7.732767520105989 0 -1 -1
180 60 2 0.527 -6.638862120825654 -9.006582852403678 7.176350269868154 0 0 -1
243 81 2 0.527 -1.8761417684510207 -8.75731251179838 2.85829308705166 0 1 -1
149 50 2 0.527 -7.34016904472618 -1.3329871494024754 5.9763570499779295 -1 0 0
331 111 1 -1.054 -2.0750278734147543 -6.7372839987068245 7.460126671543579 0 1 0
175 59 1 -1.054 -7.77070703440965 -4.3498807033892195 9.938026637818092 0 0 -1
514 172 1 -1.054 -4.176542889078856 -5.3975007417445084 3.11796059554673 0 0 0
345 115 2 0.527 -6.076704709196892 -9.368514217555498 0.4550867270381378 0 0 0
597 199 2 0.527 -10.043920803406078 -9.169216077763707 6.349361870568201 0 0 -1
237 79 2 0.527 -8.020487589237339 -1.9526085866913263 0.6452874937671531 1 0 -1
565 189 1 -1.054 -4.835008838151893 -7.871636379563592 9.414667975785042 0 1 -1
313 105 1 -1.054 -8.404682163798515 -7.824341095099458 2.717646424483858 0 1 -1
696 232 2 0.527 -4.284891549528986 -9.361774528394058 6.252278752823164 1 0 0
566 189 2 0.527 -3.998282690683544 -7.816054263478553 9.876217779335834 0 1 -1
516 172 2 0.527 -4.465943692855407 -5.287906326908201 2.2121658320946302 0 0 0
330 110 2 0.527 -1.7750718652217614 -0.7133862426212314 0.24009137777158251 0 0 0
690 230 2 0.527 -1.3182806937374512 -9.175175973149631 9.101566103288063 0 1 0
111 37 2 0.527 -1.9730821860576935 -5.209509600509991 8.908930476729909 0 0 0
822 274 2 0.527 -5.4699128893440925 -6.360623927834551 3.9102866223074546 1 0 0
677 226 2 0.527 -0.4431323885774976 -9.806644277067548 6.730296616735076 0 0 0
567 189 2 0.527 -4.623862021234895 -8.30162523954356 8.585962104880307 0 1 -1
695 232 2 0.527 -4.874247822368527 -7.9732658655283695 6.1234845158389515 1 0 0
314 105 2 0.527 -9.125831420739845 -7.866300638386626 3.345668524442436 0 1 -1
769 257 1 -1.054 -3.602514870002765 -2.630956499324018 0.38544309739403637 0 0 0
265 89 1 -1.054 -8.950767856599056 -2.1928241736052616 8.701529142742578 1 0 -1
240 80 2 0.527 -6.268791470747967 -5.087461322542224 9.008221424644672 0 0 -1
515 172 2 0.527 -4.136350382686067 -4.506912351169179 3.4664782442110713 0 0 0
493 165 1 -1.054 -8.552576294364691 -7.939708628827804 9.955771618273095 0 1 0
525 175 2 0.527 -9.558180767912477 -4.233623859600122 4.906693846448512 1 0 -1
148 50 1 -1.054 -7.606903111671128 -2.1519036974731964 6.394038490879064 -1 0 0
35 12 2 0.527 -2.693829824855155 -4.879783032128266 6.629092259480414 0 0 -2
109 37 1 -1.054 -2.5100404146644104 -4.785106694309806 9.578099335245616 0 0 0
36 12 2 0.527 -1.9721174694995582 -4.007356163519687 5.624160143370393 0 0 -2
596 199 2 0.527 -8.601756322054461 -9.629198474423301 6.3277991302111705 0 0 -1
279 93 2 0.527 -4.668651600327844 -3.306602464058055 5.750496972844106 0 0 -1
236 79 2 0.527 -7.191295376610943 -1.7506558883344514 1.895697297015408 1 0 -1
278 93 2 0.527 -5.015973311278397 -4.136379194739403 6.968168759044419 0 0 -1
241 81 1 -1.054 -1.985705778531777 -9.555597636004494 3.3749801473316214 0 1 -1
277 93 1 -1.054 -5.395028098139953 -3.7672765519849856 6.170478765554316 0 0 -1
97 33 1 -1.054 -3.9608942271539993 -2.1247930577468903 4.512078025221323 0 1 -1
868 290 1 -1.054 -7.7025741794090985 -5.455162288876047 6.274741633794148 1 0 0
621 207 2 0.527 -2.476243095273732 -6.296756825005122 3.526585830207713 1 1 0
595 199 1 -1.054 -9.40678763209073 -9.637632196151051 5.810032115313755 0 0 -1
821 274 2 0.527 -6.776138129341616 -7.115761574477357 3.786063021125182 1 0 0
715 239 1 -1.054 -4.112543840167596 -6.035433010624861 0.5445093175907587 0 0 0
637 213 1 -1.054 -9.785688915057612 -6.148839515177391 7.843139998323364 0 0 -1
524 175 2 0.527 -8.920532493842158 -2.949638700213635 5.393177220992142 1 0 -1
177 59 2 0.527 -8.094521712005243 -3.658030349680984 9.361211070869777 0 0 -1
859 287 1 -1.054 -10.36379238336402 -0.21556779599817055 0.238326698328736 1 0 1
495 165 2 0.527 -9.119674296997287 -7.229338592507299 9.6557656613759 0 1 0
620 207 2 0.527 -1.3163501220845273 -6.4850041761296655 2.5720705805555735 1 1 0
266 89 2 0.527 -8.641374080844454 -2.16211474087992 7.796233357152348 1 0 -1
694 232 1 -1.054 -4.702080093273591 -8.666376775419922 6.760809721150837 1 0 0
110 37 2 0.527 -3.3953715708479395 -5.11204679193629 9.418324102622384 0 0 0
777 259 2 0.527 -9.422427531387212 -9.48747649396442 9.347713530334483 0 1 0
178 60 1 -1.054 -7.328660365010055 -9.4232004277535 7.69291118081332 0 0 -1
267 89 2 0.527 -8.475722511011808 -1.4878758412103377 9.141538680726873 1 0 -1
239 80 2 0.527 -5.237282837793562 -6.124451717270606 8.61767169018624 0 0 -1
98 33 2 0.527 -3.115803353152943 -2.5692406193830752 4.444894032246371 0 1 -1
332 111 2 0.527 -1.4045380786635917 -6.6983240099615315 6.778105054817724 0 1 0
688 230 1 -1.054 -0.8732661990454087 -9.775225104465852 8.50312492757754 0 1 0
619 207 1 -1.054 -1.6833730742228301 -6.815831452160305 3.3918732422760307 1 1 0
235 79 1 -1.054 -8.061667715069525 -2.0169238786197994 1.599432934005602 1 0 -1
282 94 2 0.527 -0.7579903669689596 -5.423438190886796 0.18912730257474664 1 0 0
798 266 2 0.527 -2.054083729938373 -1.0368774441620516 7.292507643840397 0 1 0
384 128 2 0.527 -1.0629309708860077 -4.241904234317697 3.373159066076676 0 0 -1
869 290 2 0.527 -7.463752443077092 -6.201481877685731 5.725016847506515 1 0 0
870 290 2 0.527 -6.958355577062293 -4.857330835806319 6.204301429173343 1 0 0
329 110 2 0.527 -1.2363416732747243 -0.15527724768347362 1.5401576353887911 0 0 0
34 12 1 -1.054 -2.448057006502082 -3.9714212105638538 6.453870162491407 0 0 -2
775 259 1 -1.054 -10.11200848322898 -10.145398568330673 9.43628141714394 0 1 0
717 239 2 0.527 -3.224536205718392 -6.360711944058811 0.3966404664100196 0 0 0
766 256 1 -1.054 -6.968511396444094 -0.33244868194467614 9.34033946815749 0 0 0
144 48 2 0.527 -8.801290795528399 -4.4730624426738625 3.0042605773950353 1 0 -1
735 245 2 0.527 -9.494510915538896 -10.329719752380113 1.4454215969935937 1 1 0
382 128 1 -1.054 -1.5542717127174033 -3.6684725173826758 3.961367683351474 0 0 -1
584 195 2 0.527 -5.840274110647303 -7.17463741825248 0.34317194872401835 1 0 0
834 278 2 0.527 -9.302215789989505 -0.8740043988251447 3.0401469440430535 1 0 0
796 266 1 -1.054 -1.2427760894860036 -0.6139800785054401 7.011142077384525 0 1 0
333 111 2 0.527 -2.5152125242474694 -7.575013169500592 7.31634289738396 0 1 0
204 68 2 0.527 -4.496741846877135 -1.6177935394902043 1.5597837690861205 0 0 0
583 195 1 -1.054 -6.698335279808839 -7.596667186041237 0.38619736078810263 1 0 0
408 136 2 0.527 -0.4000192385841057 -1.4788710214272456 5.91140174418201 0 0 0
523 175 1 -1.054 -9.612862677545015 -3.2817785329366203 4.821695883004574 1 0 -1
585 195 2 0.527 -6.887450628870584 -7.661037011410942 1.3223153359567839 1 0 0
142 48 1 -1.054 -8.559811994788731 -4.686715293221376 2.1030010963489687 1 0 -1
179 60 2 0.527 -7.429571073415323 -8.857933550483596 8.458755206736685 0 0 -1
250 84 1 -1.054 -5.2857987394713675 -0.3941357839667745 6.915782401088785 0 0 0
676 226 1 -1.054 -0.11019408159036637 -9.643511646103462 5.847817801523719 0 0 0
195 65 2 0.527 -10.225419727051351 -5.521051705898374 1.4099380293772619 0 0 -1
251 84 2 0.527 -4.550026474520473 -0.8300214030605417 7.345748375659182 0 0 0
832 278 1 -1.054 -9.814582238103801 -0.769555141810029 3.84189388318773 1 0 0
764 255 2 0.527 -3.541548911732911 -10.36621750722128 4.200000481187253 0 0 0
833 278 2 0.527 -9.948120147583468 -1.6626253463459886 4.159419379898802 1 0 0
771 257 2 0.527 -4.025937522415673 -3.420209500632703 0.04777459489440794 0 0 0
252 84 2 0.527 -4.997224927396112 -0.27221947565156057 6.011299179332061 0 0 0
328 110 1 -1.054 -1.90505703029074 -0.006034678210895095 0.8717452379743076 0 0 0
727 243 1 -1.054 -1.4539115531896645 7.540276528778234 -4.952119856690843 1 0 0
443 148 2 0.527 -6.194479497904755 1.541955427560783 -7.854083093405512 0 -1 0
774 258 2 0.527 -1.940058991669158 9.861410626036955 -9.21019115200783 0 -1 0
292 98 1 -1.054 -0.8441304089148964 5.82546296719728 -7.4228344651594895 1 0 0
720 240 2 0.527 -2.0111024828966624 3.741317901409621 -2.4425765522268756 0 0 0
782 261 2 0.527 -5.337250955361424 5.9678615992757695 -2.1697368339369394 0 -1 0
456 152 2 0.527 -3.4880461782699292 0.11279140278353417 -2.1955978404365872 -1 0 1
169 57 1 -1.054 -5.59544262546466 4.755384434871775 -7.369731685615092 0 -1 0
226 76 1 -1.054 -4.135248418935609 8.420646893989629 -3.914233930625998 1 0 -1
762 254 2 0.527 -2.8333816479044724 1.1204581972695173 -4.828186858287583 -1 0 0
756 252 2 0.527 -8.006888354472414 9.881124204910902 -3.034595250408823 0 0 0
127 43 1 -1.054 -0.2968827221421453 6.5954399751808825 -0.5720369592253665 0 -1 -1
96 32 2 0.527 -2.3185544088657473 2.8097030807450007 -9.490301790696398 0 0 0
95 32 2 0.527 -3.6753287883291232 2.660896979846072 -8.835391769003683 0 0 0
606 202 2 0.527 -8.304295580660668 7.127025629338773 -8.11188566284418 0 0 0
24 8 2 0.527 -8.68170955429251 5.658000195193102 -4.218668064540576 0 -1 0
824 275 2 0.527 -8.478156980163972 7.625263474677096 -4.211157575571189 0 -1 0
170 57 2 0.527 -4.690405413213616 4.44740030177552 -7.321955992385542 0 -1 0
22 8 1 -1.054 -9.005061480951346 4.901486360878199 -3.7294240328762998 0 -1 0
628 210 1 -1.054 -2.8654439996908945 5.124400590883987 -3.756795712458435 0 0 1
66 22 2 0.527 -4.71225914579447 8.839435749537289 -10.045832094964942 0 -1 0
429 143 2 0.527 -7.123616175563423 3.9788681204486362 -7.154681590968048 1 0 0
85 29 1 -1.054 -6.624314048658131 0.5085117065073881 -5.051155428776111 1 0 0
630 210 2 0.527 -3.770755794981369 5.002897276975764 -3.4706567139925975 0 0 1
293 98 2 0.527 -1.0994368194874582 4.960087379605298 -7.103197884190385 1 0 0
23 8 2 0.527 -9.853813038152131 5.181983929456685 -3.387121820172175 0 -1 0
276 92 2 0.527 -6.776954368050301 2.5961342675411743 -4.135186135565878 1 0 0
604 202 1 -1.054 -8.202419395685219 7.685788487905098 -7.341408961800968 0 0 0
190 64 1 -1.054 -5.732721094892811 9.009509881774479 -6.60819364881946 0 -1 0
444 148 2 0.527 -5.724093307955426 2.245792389807864 -9.109167027642657 0 -1 0
275 92 2 0.527 -5.613135752714962 1.9245106666664746 -3.4378086848270266 1 0 0
442 148 1 -1.054 -5.444032644448363 1.6176282070262058 -8.443430638828834 0 -1 0
274 92 1 -1.054 -6.023001504481988 2.7786642732393023 -3.5744127362915448 1 0 0
648 216 2 0.527 -8.145632756950594 1.0911723574930363 -1.4016490100773709 0 0 0
134 45 2 0.527 -4.3461777362494995 1.2375860108454386 -7.022719235170792 0 0 0
560 187 2 0.527 -6.029611563279342 4.668686588879044 -4.251192886763302 0 0 0
473 158 2 0.527 -8.785683256845214 1.146569752076676 -7.83253937630052 0 0 0
719 240 2 0.527 -1.8055943470624616 2.4203042666029635 -3.1529073624823143 0 0 0
428 143 2 0.527 -8.377372804452941 3.9617212383892824 -8.003023087334062 1 0 0
117 39 2 0.527 -3.2044653714892046 7.298585064378534 -0.8592170446798217 1 -1 0
187 63 1 -1.054 -9.159145521095255 7.787145730301349 -0.12314400296518713 0 0 -1
191 64 2 0.527 -5.375989654352166 9.2292348826656 -7.468828778893711 0 -1 0
115 39 1 -1.054 -2.7249894395932506 7.874803933905705 -0.2639835403156017 1 -1 0
755 252 2 0.527 -8.874992467600196 9.068370550112098 -2.097730989493936 0 0 0
65 22 2 0.527 -4.134266693033203 7.7452499138698645 -9.17372637943163 0 -1 0
511 171 1 -1.054 -7.006750586274029 4.696524394309524 -1.7659166023766613 0 -1 0
632 211 2 0.527 -0.1628831490422975 1.2505259291828263 -1.92164401998469 1 0 0
128 43 2 0.527 -1.115941944191965 7.068880101944503 -0.7177090649631506 0 -1 -1
865 289 1 -1.054 -3.196980199323294 4.00414584087747 -6.542398398002615 0 0 1
825 275 2 0.527 -7.938583851046136 7.409739178986515 -5.6091199550364035 0 -1 0
743 248 2 0.527 -9.898467530049556 2.4054825526753163 -1.198196750354251 0 -1 0
454 152 1 -1.054 -4.425296253903413 0.3017367695395432 -2.241295171240049 -1 0 1
215 72 2 0.527 -9.1721537347357 4.867362786232027 -10.11066540393629 1 0 1
25 9 1 -1.054 -8.78858815538197 10.024105614808251 -8.97784802383346 1 -1 0
876 292 2 0.527 -0.37983285263132593 2.320683718848752 -8.454042585689544 0 0 0
761 254 2 0.527 -1.38687766419884 0.6871133453963658 -4.936469967701267 -1 0 0
760 254 1 -1.054 -2.0381117584519863 1.0009362941300015 -4.309064476351662 -1 0 0
228 76 2 0.527 -3.295061464720087 8.308540240620497 -4.358921467530201 1 0 -1
427 143 1 -1.054 -8.031114570709812 3.674461118548919 -7.158148815485288 1 0 0
234 78 2 0.527 -2.7676819131103114 9.750303805771486 -1.1054941226381256 0 -2 0
135 45 2 0.527 -4.857980164006025 1.106673994858351 -5.603985374466785 0 0 0
171 57 2 0.527 -5.71952357026705 5.261210127751241 -6.566629750583276 0 -1 0
561 187 2 0.527 -6.3000684745478654 6.105224988624597 -4.645013521213603 0 0 0
227 76 2 0.527 -4.755719000654315 8.610711736048609 -4.617881947369388 1 0 -1
728 243 2 0.527 -1.0819614690527715 6.955230722836104 -5.61212231330502 1 0 0
455 152 2 0.527 -4.605861952572504 0.8126641569213398 -1.4522593939321293 -1 0 1
646 216 1 -1.054 -8.198626116142831 1.6568997596889616 -0.6313419060927554 0 0 0
751 251 1 -1.054 -8.088253084198744 6.291950822259432 -9.835737530070729 0 0 1
133 45 1 -1.054 -4.127052755025395 1.452664746803082 -6.116102248746985 0 0 0
192 64 2 0.527 -6.609088107527901 8.670715964634189 -6.791028775438056 0 -1 0
718 240 1 -1.054 -1.4958792571095927 2.935360017316512 -2.4079087256900396 0 0 0
668 223 2 0.527 -10.140893124940783 2.6066733787192344 -9.414616221103769 0 0 0
773 258 2 0.527 -1.4103357861260655 9.160940942557511 -7.9770561504289486 0 -1 0
94 32 1 -1.054 -3.2250449333578137 3.111267078859653 -9.549982494888505 0 0 0
51 17 2 0.527 -3.100270312772926 4.958719537927742 -9.182356926323704 0 -1 0
50 17 2 0.527 -3.958058922480161 5.811940334819839 -8.272359492659627 0 -1 0
783 261 2 0.527 -4.522719800065229 7.212297440681221 -2.452231116114632 0 -1 0
729 243 2 0.527 -1.5918248367749506 8.366930303650927 -5.414561137877459 1 0 0
513 171 2 0.527 -7.723483476744667 5.106995826500146 -2.2496894108202614 0 -1 0
86 29 2 0.527 -7.115715300479103 0.5266163954167542 -5.872390236355684 1 0 0
866 289 2 0.527 -3.1212010299607407 4.364581330860728 -5.658898259020104 0 0 1
772 258 1 -1.054 -1.5018814483485965 9.059792056676224 -8.924481981437312 0 -1 0
512 171 2 0.527 -6.836189579386186 3.880449886354855 -2.236193381202348 0 -1 0
823 275 1 -1.054 -7.8134070933193716 7.139534518928928 -4.699423064246277 0 -1 0
347 116 2 0.527 -2.7845622420016465 3.073197979140403 -0.4755946534511004 0 0 0
33 11 2 0.527 -8.556661540096334 2.683954734088008 -5.585229349484219 0 -1 0
781 261 1 -1.054 -4.5336390675093625 6.420744351641913 -1.9141318525013258 0 -1 0
214 72 1 -1.054 -9.654146385706467 4.0518500382133915 -10.247966097867252 1 0 1
49 17 1 -1.054 -3.4284573397700884 5.850691815204064 -9.068755609821785 0 -1 0
754 252 1 -1.054 -8.802336394980653 9.349257912948802 -3.0098998583244256 0 0 0
64 22 1 -1.054 -4.5185016410782 8.621053918230642 -9.134242380421034 0 -1 0
629 210 2 0.527 -2.687607745149416 6.052266050272122 -3.6029538380417447 0 0 1
559 187 1 -1.054 -5.593849784653168 5.465661461977689 -4.553139022945706 0 0 0
828 276 2 0.527 -1.2199135004644823 0.3450041874924814 -9.066500025482881 0 0 1
102 34 2 0.527 -0.8735686639161298 7.987196525563524 -10.039383991482948 0 0 0
867 289 2 0.527 -3.5011888277636976 3.1062827269161737 -6.41001696255099 0 0 1
667 223 1 -1.054 -10.168966134795536 1.8608057360556796 -8.815348392715762 0 0 0
753 251 2 0.527 -7.190098547861584 6.16251568079946 -10.140358042980454 0 0 1
438 146 2 0.527 -0.5057485083967759 8.223511205309025 -3.169833522083925 0 0 0
826 276 1 -1.054 -0.9760892535248669 1.0981558667523288 -9.604588107235402 0 0 1
335 112 2 0.527 -4.8520536307594355 5.467176327572773 -10.34099252979911 0 0 1
294 98 2 0.527 -1.4438359419169533 5.999921552233426 -8.148191175984632 1 0 0
472 158 1 -1.054 -8.057220853744214 0.7639448306194101 -7.343491697275521 0 0 0
647 216 2 0.527 -7.360619976457636 1.5341731057207753 -0.1853460488088441 0 0 0
605 202 2 0.527 -8.641355678585036 8.50290397964059 -7.577810939012725 0 0 0
31 11 1 -1.054 -8.858162857953928 2.40337892262532 -4.721168541413346 0 -1 0
32 11 2 0.527 -9.06540584123491 3.2179228290367945 -4.263131825190713 0 -1 0
27 9 2 0.527 -9.245515160193262 10.247585856249271 -9.788712779390389 1 -1 0
103 35 1 -1.054 -1.6495024692381364 10.1247163890621 -6.100601536025985 0 0 -1
87 29 2 0.527 -7.279165416784695 0.6850406343384812 -4.375702413648705 1 0 0
874 292 1 -1.054 -0.05199435861685586 3.071946415470604 -7.959720725889024 0 0 0
827 276 2 0.527 -0.38804988670139906 0.7383560786863193 -10.26865047301432 0 0 1
262 88 1 -1.054 -1.4091460758659249 1.8722217163374104 4.413633552869605 0 0 -1
116 39 2 0.527 -3.1742723764719294 7.779755353320015 0.5758610707554865 1 -1 0
217 73 1 -1.054 -3.840269049968917 0.562607802843532 4.141941433586025 1 0 0
809 270 2 0.527 -3.4531720940120483 7.797393512482914 2.8072700641797574 0 0 0
348 116 2 0.527 -2.54538597857106 1.796474758668813 0.3020015935794369 0 0 0
18 6 2 0.527 -7.1051507587628375 2.9943795998982576 6.850425471991388 0 0 -1
664 222 1 -1.054 -4.403045451245202 4.789728909833675 1.9058440677593502 1 0 0
140 47 2 0.527 -7.258888277469278 9.025206952657365 4.358129127885052 1 0 -1
841 281 1 -1.054 -2.106067304771928 5.727711927542595 8.772384121450878 1 -1 0
665 222 2 0.527 -4.449461807230254 5.605636496314371 2.4042096594057494 1 0 0
725 242 2 0.527 -3.1242199248040423 3.9811482196502066 6.251000563517687 0 0 0
385 129 1 -1.054 -9.024008914527348 7.950266161436309 8.76076802093524 1 -1 0
673 225 1 -1.054 -0.013385140715071131 8.042954872709378 4.965697562205634 0 0 0
498 166 2 0.527 -7.544280167319448 8.925951614309517 1.8421018055425744 0 0 0
264 88 2 0.527 -1.3579287546666485 1.9047572528015433 5.36890667066432 0 0 -1
478 160 1 -1.054 -7.138457456636758 4.58070708844539 5.875026925601739 0 0 0
334 112 1 -1.054 -5.712071922465038 5.39330619007381 9.985585919316128 0 0 0
156 52 2 0.527 -8.914660288073101 5.044960341486032 1.3111581823287075 0 0 -1
724 242 1 -1.054 -3.157992985855162 4.440763446540247 5.412048155420736 0 0 0
785 262 2 0.527 -1.386250552816941 6.852997072736633 2.267925817127697 0 0 0
573 191 2 0.527 -8.161041173085437 6.131937606374118 5.947615302068931 1 -1 0
842 281 2 0.527 -2.5549020677496905 6.321195806331977 8.170263571404648 1 -1 0
615 205 2 0.527 -4.517873203888679 3.5284378395088964 4.77515871674297 0 -1 0
479 160 2 0.527 -6.632469437126964 4.267756551929525 5.12518282891666 0 0 0
613 205 1 -1.054 -5.146749702415693 3.1186293988253375 4.181190136215882 0 -1 0
141 47 2 0.527 -8.175438239150619 9.78533001519295 5.293028625265446 1 0 -1
653 218 2 0.527 -9.50759664706019 6.849477435191206 4.536662188372761 0 -1 0
483 161 2 0.527 -7.628901240459712 1.2070993723193126 4.475648860318442 0 1 0
686 229 2 0.527 -1.7636010065026397 9.46767711136067 2.6081664086459355 1 0 0
386 129 2 0.527 -9.084486759658144 7.765632835658204 7.823495067931519 1 -1 0
767 256 2 0.527 -7.046939333209298 0.6214928840797729 9.348925110542384 0 0 0
861 287 2 0.527 -9.71794817192665 0.4838310235081664 0.33809763879600574 1 0 1