LAMMPS (20 Nov 2019)
# no dynamics
units real
atom_style full
bond_style harmonic
pair_style lj/cut 10.0
read_data singlemolecule.data
  orthogonal box = (-5 -5 -5) to (5 5 5)
  1 by 1 by 1 MPI processor grid
  reading atoms ...
  3 atoms
  scanning bonds ...
  2 = max bonds/atom
  reading bonds ...
  2 bonds
  2 = max # of 1-2 neighbors
  1 = max # of 1-3 neighbors
  1 = max # of 1-4 neighbors
  2 = max # of special neighbors
  special bonds CPU = 3.4838e-05 secs
  read_data CPU = 0.000610357 secs
mass * 1
pair_coeff * * 0 0
bond_coeff * 0 0
replicate 2 1 1
  orthogonal box = (-5 -5 -5) to (15 5 5)
  1 by 1 by 1 MPI processor grid
  6 atoms
  4 bonds
  2 = max # of 1-2 neighbors
  1 = max # of 1-3 neighbors
  1 = max # of 1-4 neighbors
  2 = max # of special neighbors
  special bonds CPU = 3.3617e-05 secs
  replicate CPU = 0.000121631 secs
change_box all x final -4 14
  orthogonal box = (-4 -5 -5) to (14 5 5)
dump mydump1 all xtc 1 twomolecules.xtc
dump mydump2 all atom 1 twomolecules.lammpstrj
#dump_modify mydump element O H
run 9
WARNING: No fixes defined, atoms won't move (src/verlet.cpp:52)
Neighbor list info ...
  update every 1 steps, delay 10 steps, check yes
  max neighbors/atom: 2000, page size: 100000
  master list distance cutoff = 12
  ghost atom cutoff = 12
  binsize = 6, bins = 3 2 2
  1 neighbor lists, perpetual/occasional/extra = 1 0 0
  (1) pair lj/cut, perpetual
      attributes: half, newton on
      pair build: half/bin/newton
      stencil: half/bin/3d/newton
      bin: standard
Per MPI rank memory allocation (min/avg/max) = 6.954 | 6.954 | 6.954 Mbytes
Step Temp E_pair E_mol TotEng Press 
       0            0            0            0            0            0 
       9            0            0            0            0            0 
Loop time of 0.0001699 on 1 procs for 9 steps with 6 atoms

Performance: 4576.810 ns/day, 0.005 hours/ns, 52972.337 timesteps/s
63.6% CPU use with 1 MPI tasks x no OpenMP threads

MPI task timing breakdown:
Section |  min time  |  avg time  |  max time  |%varavg| %total
---------------------------------------------------------------
Pair    | 7.142e-06  | 7.142e-06  | 7.142e-06  |   0.0 |  4.20
Bond    | 1.84e-06   | 1.84e-06   | 1.84e-06   |   0.0 |  1.08
Neigh   | 0          | 0          | 0          |   0.0 |  0.00
Comm    | 6.834e-06  | 6.834e-06  | 6.834e-06  |   0.0 |  4.02
Output  | 0.00014794 | 0.00014794 | 0.00014794 |   0.0 | 87.07
Modify  | 1.25e-06   | 1.25e-06   | 1.25e-06   |   0.0 |  0.74
Other   |            | 4.898e-06  |            |       |  2.88

Nlocal:    6 ave 6 max 6 min
Histogram: 1 0 0 0 0 0 0 0 0 0
Nghost:    102 ave 102 max 102 min
Histogram: 1 0 0 0 0 0 0 0 0 0
Neighs:    60 ave 60 max 60 min
Histogram: 1 0 0 0 0 0 0 0 0 0

Total # of neighbors = 60
Ave neighs/atom = 10
Ave special neighs/atom = 2
Neighbor list builds = 0
Dangerous builds = 0
write_data twomolecules.data
Total wall time: 0:00:00
