LAMMPS data file. CGCMM style. atom_style full generated by VMD/TopoTools v1.8 on Sun Jul 10 07:16:12 CEST 2022
 3 atoms
 2 bonds
 0 angles
 0 dihedrals
 0 impropers
 3 atom types
 1 bond types
 0 angle types
 0 dihedral types
 0 improper types
 -5.000000 5.000000  xlo xhi
 -5.000000 5.000000  ylo yhi
 -5.000000 5.000000  zlo zhi

# Pair Coeffs
#
# 1  HW1
# 2  HW2
# 3  OW

# Bond Coeffs
#
# 1  

 Masses

 1 1.008000 # HW1
 2 1.008000 # HW2
 3 15.999000 # OW

 Atoms # full

1 1 3 0.000000 0.000000 0.000000 0.000000 # OW SOL
2 1 1 0.000000 0.820000 0.000000 0.580000 # HW1 SOL
3 1 2 0.000000 -0.820000 0.000000 0.580000 # HW2 SOL

 Bonds

1 1 1 3
2 1 1 2

