LAMMPS data file via write_data, version 20 Nov 2019, timestep = 9

6 atoms
3 atom types
4 bonds
1 bond types

-4.0000000000000000e+00 1.4000000000000000e+01 xlo xhi
-5.0000000000000000e+00 5.0000000000000000e+00 ylo yhi
-5.0000000000000000e+00 5.0000000000000000e+00 zlo zhi

Masses

1 1
2 1
3 1

Pair Coeffs # lj/cut

1 0 0
2 0 0
3 0 0

Bond Coeffs # harmonic

1 0 0

Atoms # full

1 1 3 0.0000000000000000e+00 0.0000000000000000e+00 0.0000000000000000e+00 0.0000000000000000e+00 0 0 0
2 1 1 0.0000000000000000e+00 8.1999999999999995e-01 0.0000000000000000e+00 5.7999999999999996e-01 0 0 0
3 1 2 0.0000000000000000e+00 -8.1999999999999995e-01 0.0000000000000000e+00 5.7999999999999996e-01 0 0 0
4 2 3 0.0000000000000000e+00 1.0000000000000000e+01 0.0000000000000000e+00 0.0000000000000000e+00 0 0 0
5 2 1 0.0000000000000000e+00 1.0820000000000000e+01 0.0000000000000000e+00 5.7999999999999996e-01 0 0 0
6 2 2 0.0000000000000000e+00 9.1799999999999997e+00 0.0000000000000000e+00 5.7999999999999996e-01 0 0 0

Velocities

1 0.0000000000000000e+00 0.0000000000000000e+00 0.0000000000000000e+00
2 0.0000000000000000e+00 0.0000000000000000e+00 0.0000000000000000e+00
3 0.0000000000000000e+00 0.0000000000000000e+00 0.0000000000000000e+00
4 0.0000000000000000e+00 0.0000000000000000e+00 0.0000000000000000e+00
5 0.0000000000000000e+00 0.0000000000000000e+00 0.0000000000000000e+00
6 0.0000000000000000e+00 0.0000000000000000e+00 0.0000000000000000e+00

Bonds

1 1 1 3
2 1 1 2
3 1 4 6
4 1 4 5
